# vtk DataFile Version 2.0
vtk output
ASCII
DATASET RECTILINEAR_GRID
DIMENSIONS 25 25 25
X_COORDINATES 25 float
0 0.208333 0.416667 0.625 0.833333 1.04167 1.25 1.45833 1.66667 
1.875 2.08333 2.29167 2.5 2.70833 2.91667 3.125 3.33333 3.54167 
3.75 3.95833 4.16667 4.375 4.58333 4.79167 5 
Y_COORDINATES 25 float
5 5.20833 5.41667 5.625 5.83333 6.04167 6.25 6.45833 6.66667 
6.875 7.08333 7.29167 7.5 7.70833 7.91667 8.125 8.33333 8.54167 
8.75 8.95833 9.16667 9.375 9.58333 9.79167 10 
Z_COORDINATES 25 float
0 0.208333 0.416667 0.625 0.833333 1.04167 1.25 1.45833 1.66667 
1.875 2.08333 2.29167 2.5 2.70833 2.91667 3.125 3.33333 3.54167 
3.75 3.95833 4.16667 4.375 4.58333 4.79167 5 
POINT_DATA 15625
VECTORS grad float
0.100973 -0.0128532 -0.0676105 0.0964216 -0.00758634 -0.0709558 0.0931364 -0.00190914 -0.0742717 
0.0899041 0.00381244 -0.0776222 0.0874825 0.0102147 -0.0815033 0.0850752 0.0166856 -0.0854637 
0.0827936 0.0237603 -0.0901214 0.0804272 0.0308313 -0.0948003 0.0775521 0.0378803 -0.0996072 
0.0745145 0.0446504 -0.10411 0.0707551 0.0501814 -0.107258 0.0668759 0.0549763 -0.109473 
0.0625833 0.0572282 -0.108458 0.0582754 0.0583822 -0.105958 0.0539251 0.0564957 -0.0993418 
0.0495169 0.0534926 -0.0914117 0.0449778 0.0479583 -0.0805028 0.0401536 0.0414579 -0.0693228 
0.0347925 0.033139 -0.0576325 0.0289861 0.023822 -0.0470388 0.0224768 0.0129292 -0.0381767 
0.0156523 0.000727918 -0.0315008 0.00840771 -0.013218 -0.0277401 0.00115871 -0.02891 -0.0266969 
-0.00609527 -0.0465758 -0.0287258 0.106302 -0.0125426 -0.065915 0.101878 -0.0076125 -0.0696269 
0.0989537 -0.00209692 -0.0734589 0.0960876 0.00348222 -0.0773385 0.094119 0.0100359 -0.0819463 
0.0921453 0.016701 -0.0866567 0.0901264 0.0243475 -0.0922708 0.0879347 0.0320458 -0.0979188 
0.084707 0.0400549 -0.103771 0.0811429 0.0477944 -0.109251 0.0760843 0.0543354 -0.113081 
0.070732 0.0600207 -0.115752 0.0643653 0.0627503 -0.114418 0.0579569 0.0641609 -0.111274 
0.0514331 0.0619195 -0.103115 0.0449845 0.0584013 -0.0934255 0.0387061 0.0519893 -0.0802643 
0.0322691 0.0446009 -0.0668554 0.0255335 0.0353745 -0.0529799 0.0183416 0.0252324 -0.0404397 
0.0104294 0.0136444 -0.0300077 0.00208211 0.000851537 -0.0221167 -0.0068451 -0.013548 -0.0176136 
-0.0159 -0.0295611 -0.0161572 -0.0250993 -0.0473983 -0.0181451 0.11137 -0.0119525 -0.0644499 
0.10714 -0.00756357 -0.0684568 0.104711 -0.00243199 -0.0727423 0.102349 0.00278143 -0.0770906 
0.101033 0.00924979 -0.082401 0.0996943 0.0158736 -0.0878447 0.0981545 0.023865 -0.094462 
0.096339 0.0319711 -0.101137 0.0928688 0.0407655 -0.108157 0.0888427 0.0493119 -0.114736 
0.0823454 0.0567565 -0.119357 0.0753279 0.0632308 -0.122554 0.0665129 0.066353 -0.120832 
0.0576297 0.0679354 -0.116918 0.048558 0.0652537 -0.106934 0.0397593 0.0611567 -0.0951878 
0.0315794 0.0538517 -0.079448 0.0234385 0.0456028 -0.0635198 0.0153708 0.0355772 -0.0472367 
0.00686779 0.0247618 -0.0325821 -0.00232253 0.0126991 -0.0204987 -0.012058 -0.000426844 -0.0113718 
-0.0225203 -0.0149704 -0.00618685 -0.033204 -0.0309554 -0.00444203 -0.044138 -0.0485699 -0.00658611 
0.115618 -0.011434 -0.0634374 0.111624 -0.00785918 -0.0676076 0.109791 -0.0034474 -0.0722161 
0.108041 0.00105823 -0.0769053 0.107554 0.00700276 -0.0828303 0.107034 0.0131341 -0.0889305 
0.106209 0.020909 -0.096573 0.104998 0.0288513 -0.104323 0.10147 0.0377975 -0.112717 
0.0971207 0.0465325 -0.120621 0.0891254 0.0543285 -0.126349 0.0803247 0.0610968 -0.130334 
0.0687418 0.0643152 -0.128298 0.0570729 0.0658616 -0.123579 0.0451662 0.0627783 -0.111429 
0.0338136 0.058226 -0.0972592 0.023717 0.0503439 -0.0785137 0.0139255 0.0415942 -0.0597044 
0.00470845 0.0312115 -0.040775 -0.00490831 0.0201716 -0.0238429 -0.0151562 0.00809389 -0.0100643 
-0.0260603 -0.00490448 0.000278333 -0.0378393 -0.0191304 0.00603946 -0.0499073 -0.0346177 0.00790897 
-0.062302 -0.0515307 0.00537921 0.119197 -0.0109739 -0.0627938 0.115475 -0.00843553 -0.0670199 
0.114321 -0.00501716 -0.0718452 0.113268 -0.00149807 -0.076771 0.113756 0.00356532 -0.0832388 
0.114203 0.00883663 -0.0899329 0.114286 0.0159376 -0.0986185 0.113866 0.0232502 -0.107483 
0.110428 0.0318324 -0.117418 0.10587 0.040252 -0.126832 0.0963281 0.0479493 -0.133925 
0.0856483 0.0546084 -0.138911 0.071037 0.0576812 -0.136623 0.056329 0.0590226 -0.13107 
0.0413534 0.0555693 -0.116475 0.0272808 0.0506623 -0.0995824 0.015255 0.0424604 -0.0774831 
0.00385655 0.033503 -0.055498 -0.00636099 0.0231233 -0.033728 -0.0169307 0.0122247 -0.0143854 
-0.0280565 0.000506584 0.00112426 -0.0399502 -0.0119889 0.0126661 -0.0528679 -0.0255209 0.0189173 
-0.0661211 -0.0401278 0.020778 -0.0797533 -0.0559497 0.0176756 0.121281 -0.0110128 -0.0627862 
0.117808 -0.00976756 -0.0668545 0.117317 -0.00768719 -0.0716617 0.116945 -0.00550982 -0.0765891 
0.118406 -0.00184509 -0.0833582 0.119825 0.00202139 -0.0904072 0.120868 0.00766326 -0.0999194 
0.121304 0.0135221 -0.109699 0.118101 0.0206826 -0.121081 0.113485 0.0277296 -0.131948 
0.10259 0.0342728 -0.140519 0.090222 0.039891 -0.146627 0.072765 0.0423139 -0.144226 
0.0552066 0.0431618 -0.137937 0.0373673 0.0396484 -0.120885 0.0207897 0.0348333 -0.101279 
0.00707189 0.0270679 -0.0758855 -0.00570723 0.0186535 -0.0508346 -0.0167194 0.00901776 -0.0264292 
-0.0280494 -0.00105782 -0.00489315 -0.039881 -0.0118278 0.0121126 -0.052581 -0.0232669 0.0246331 
-0.0664391 -0.0355979 0.0311734 -0.0806439 -0.0488232 0.0328408 -0.0952407 -0.0630592 0.0289999 
0.122334 -0.0113957 -0.0632171 0.119094 -0.0116208 -0.0669803 0.119254 -0.011116 -0.0716076 
0.119554 -0.0105253 -0.0763744 0.121987 -0.00861618 -0.0832783 0.12438 -0.00653026 -0.0905174 
0.126419 -0.00288901 -0.100707 0.127757 0.00094769 -0.111264 0.124887 0.0059571 -0.124028 
0.120318 0.0109025 -0.136308 0.108203 0.0155637 -0.146437 0.0942784 0.0194984 -0.153749 
0.0741019 0.0209235 -0.15133 0.0538232 0.0210791 -0.144375 0.0332617 0.0177193 -0.124857 
0.0143273 0.0133041 -0.102545 -0.000918913 0.00649658 -0.0738969 -0.0149226 -0.000856826 -0.0458558 
-0.0265876 -0.00923778 -0.0189568 -0.0385449 -0.0180201 0.00462319 -0.0509636 -0.0274362 0.0229628 
-0.0643436 -0.037437 0.0363101 -0.0790051 -0.0482175 0.0430007 -0.0940007 -0.0597154 0.0443477 
-0.109374 -0.0720244 0.0396539 0.121324 -0.0127693 -0.064388 0.118226 -0.0145673 -0.0675436 
0.118874 -0.0157985 -0.071648 0.119674 -0.016963 -0.0759053 0.122811 -0.0171057 -0.0825065 
0.125907 -0.0171204 -0.089477 0.128636 -0.0160096 -0.0996966 0.130602 -0.0147642 -0.110344 
0.127987 -0.0127113 -0.123556 0.123499 -0.0106855 -0.136314 0.110687 -0.00878023 -0.147047 
0.0958562 -0.00729951 -0.154784 0.0740525 -0.00728532 -0.15217 0.0521263 -0.00804234 -0.14468 
0.0298605 -0.010935 -0.123687 0.00941139 -0.0145373 -0.0997984 -0.00692011 -0.0197478 -0.0693463 
-0.0218485 -0.0254341 -0.0396781 -0.0341356 -0.0320163 -0.0114854 -0.0467002 -0.0390211 0.0131093 
-0.059703 -0.046693 0.032023 -0.0736965 -0.0548861 0.0456169 -0.089011 -0.0637743 0.0521177 
-0.104591 -0.0731972 0.0529602 -0.12047 -0.0832247 0.0474063 0.119117 -0.0147181 -0.0659887 
0.116107 -0.0181488 -0.068361 0.117147 -0.0212088 -0.0717432 0.118349 -0.0242264 -0.0752884 
0.122035 -0.026593 -0.081333 0.125677 -0.0288943 -0.0877684 0.128918 -0.0306215 -0.0976426 
0.131352 -0.0322979 -0.10798 0.128947 -0.0336692 -0.1211 0.124558 -0.0350381 -0.133791 
0.111353 -0.0363962 -0.144574 0.0959947 -0.0378168 -0.152283 0.0731983 -0.0394534 -0.149371 
0.0502473 -0.041251 -0.141423 0.0268685 -0.0434946 -0.11953 0.00539346 -0.0460439 -0.0947227 
-0.011766 -0.0492863 -0.0633081 -0.0274448 -0.0529537 -0.0328042 -0.0403364 -0.0574213 -0.00401451 
-0.0534968 -0.0623672 0.0209972 -0.0670817 -0.0680683 0.0400438 -0.0816503 -0.0742393 0.0535475 
-0.0975305 -0.0810368 0.0596608 -0.113574 -0.0881828 0.059892 -0.129803 -0.0957228 0.053474 
0.114744 -0.0182224 -0.0681739 0.111712 -0.0230834 -0.0694362 0.112917 -0.0277609 -0.0717483 
0.114283 -0.0324203 -0.0742261 0.118125 -0.0367998 -0.0792461 0.121908 -0.0411744 -0.0846461 
0.125178 -0.0455064 -0.093391 0.127639 -0.0498642 -0.102565 0.12524 -0.0543766 -0.114311 
0.120902 -0.0588578 -0.125621 0.107941 -0.0632003 -0.13499 0.0928794 -0.0672846 -0.141461 
0.0705622 -0.0704768 -0.137917 0.0480271 -0.073292 -0.129674 0.0248886 -0.0750631 -0.108422 
0.00348469 -0.0767687 -0.0844326 -0.0139876 -0.0783257 -0.054242 -0.030091 -0.0802326 -0.0249305 
-0.0436178 -0.0827978 0.00272594 -0.0574003 -0.085852 0.0266911 -0.0715868 -0.0896783 0.044828 
-0.0866611 -0.0938834 0.0574861 -0.102919 -0.0985935 0.0628392 -0.119189 -0.103447 0.0623496 
-0.135472 -0.108462 0.0552553 0.109322 -0.0224807 -0.0706424 0.106213 -0.028674 -0.0706363 
0.107473 -0.0348666 -0.0717096 0.10889 -0.0410652 -0.0729478 0.112694 -0.0473554 -0.0767162 
0.116423 -0.0537 -0.0808383 0.11949 -0.0605236 -0.0880738 0.121762 -0.0674461 -0.0956689 
0.119271 -0.0749625 -0.105421 0.114959 -0.0824192 -0.114713 0.102551 -0.0896108 -0.121958 
0.0881865 -0.0962435 -0.126603 0.0670622 -0.100945 -0.122265 0.0456414 -0.104767 -0.113808 
0.0233996 -0.106151 -0.0939419 0.00259855 -0.107114 -0.0716143 -0.0149366 -0.107123 -0.0437078 
-0.0313067 -0.107395 -0.0165722 -0.0454836 -0.10816 0.00911222 -0.0599011 -0.109404 0.0313212 
-0.0746986 -0.111402 0.0480428 -0.0902451 -0.113668 0.059489 -0.10679 -0.116293 0.0639013 
-0.12317 -0.118845 0.0626378 -0.139364 -0.121317 0.0549582 0.102385 -0.0286906 -0.0729306 
0.0991399 -0.0356711 -0.0715107 0.100281 -0.0427925 -0.0712103 0.101566 -0.0499382 -0.0710702 
0.105054 -0.0574577 -0.073389 0.108451 -0.0650682 -0.0760219 0.111044 -0.0734805 -0.0814193 
0.112892 -0.0820238 -0.087092 0.110269 -0.0913536 -0.0944173 0.106022 -0.100593 -0.101282 
0.0945595 -0.10943 -0.106097 0.0813639 -0.117559 -0.108713 0.0621827 -0.123243 -0.103728 
0.042626 -0.12781 -0.0953486 0.0220294 -0.129283 -0.0775681 0.00249223 -0.130115 -0.0577094 
-0.0146433 -0.129493 -0.0331407 -0.0308972 -0.128991 -0.0092231 -0.0454916 -0.128712 0.0134687 
-0.0603143 -0.128788 0.0330319 -0.0754977 -0.129428 0.0476552 -0.0912541 -0.130163 0.0574196 
-0.107774 -0.131026 0.0607053 -0.123953 -0.131601 0.0587097 -0.139745 -0.13185 0.0507439 
0.0948423 -0.0356811 -0.0751467 0.091438 -0.0432308 -0.0722548 0.0923891 -0.0510464 -0.0705268 
0.0934693 -0.0589024 -0.0689529 0.0965301 -0.0673786 -0.0697429 0.0994838 -0.0759735 -0.070802 
0.101496 -0.0856132 -0.0742297 0.102825 -0.0953998 -0.0778426 0.100054 -0.106067 -0.0825673 
0.0958892 -0.116612 -0.0868402 0.0855275 -0.126612 -0.0891048 0.0736895 -0.135817 -0.0896098 
0.0567514 -0.142273 -0.0840364 0.0393586 -0.147481 -0.0758518 0.0207067 -0.149232 -0.0604365 
0.00269785 -0.150177 -0.0433699 -0.0138531 -0.149293 -0.0225604 -0.0298377 -0.148361 -0.00227774 
-0.0447564 -0.147338 0.0170132 -0.0598924 -0.146506 0.0335747 -0.0753717 -0.145974 0.0458267 
-0.0912331 -0.145341 0.0537213 -0.107604 -0.144573 0.0558059 -0.123456 -0.1433 0.0530949 
-0.13872 -0.141454 0.0449628 0.0870785 -0.0441926 -0.0757382 0.0835281 -0.051652 -0.0716935 
0.0841801 -0.0594712 -0.0688066 0.0849468 -0.0673415 -0.0660646 0.0874722 -0.075994 -0.0655425 
0.0898856 -0.0847741 -0.06525 0.0913139 -0.094677 -0.0669786 0.0921342 -0.104717 -0.0688338 
0.0893058 -0.115583 -0.0714483 0.0852985 -0.126311 -0.0736597 0.0760514 -0.136425 -0.0740791 
0.0655533 -0.145773 -0.0731201 0.0507336 -0.152477 -0.0673992 0.0354104 -0.157989 -0.059698 
0.0186928 -0.160198 -0.0465132 0.00229177 -0.161556 -0.0320692 -0.0133917 -0.160988 -0.0147709 
-0.0287699 -0.160208 0.00205724 -0.0435732 -0.159028 0.0180003 -0.0585857 -0.157828 0.0315874 
-0.0739284 -0.156598 0.0414546 -0.08949 -0.155061 0.0475142 -0.105343 -0.153114 0.0484971 
-0.120549 -0.150484 0.0452552 -0.135021 -0.147082 0.0372375 0.079243 -0.0531975 -0.0758027 
0.0755509 -0.0603525 -0.0707087 0.0758683 -0.0679515 -0.0667503 0.076286 -0.0756103 -0.0629262 
0.0782411 -0.0841861 -0.0611622 0.0800827 -0.0928922 -0.0595903 0.0809264 -0.102745 -0.0597076 
0.0812415 -0.112719 -0.059903 0.0783846 -0.123414 -0.0605664 0.0745596 -0.13396 -0.060888 
0.0664312 -0.143847 -0.0596912 0.0572672 -0.153037 -0.0574779 0.0445255 -0.15982 -0.0517526 
0.0312412 -0.165526 -0.0446284 0.0164548 -0.168249 -0.0336305 0.00168731 -0.17012 -0.021754 
-0.013037 -0.170056 -0.00788646 -0.0276992 -0.169616 0.0055456 -0.0422447 -0.168468 0.0181579 
-0.056992 -0.167076 0.0287794 -0.0720579 -0.165301 0.0362575 -0.0871883 -0.163009 0.0404935 
-0.102405 -0.16003 0.0404068 -0.11686 -0.156205 0.0366939 -0.130454 -0.151422 0.0288817 
0.0723823 -0.0621046 -0.0731556 0.0686097 -0.0685853 -0.0677396 0.0685252 -0.0755442 -0.0632924 
0.0685293 -0.0825668 -0.0589634 0.069892 -0.0905677 -0.056446 0.0711499 -0.0986943 -0.0540897 
0.0714865 -0.107927 -0.0531505 0.0713694 -0.117264 -0.0522671 0.0685304 -0.12722 -0.0517182 
0.0648865 -0.137038 -0.0508961 0.0576647 -0.146239 -0.0488602 0.0495672 -0.154842 -0.0460686 
0.0384443 -0.161381 -0.0406663 0.0267747 -0.166994 -0.0342595 0.0135914 -0.170042 -0.0250712 
0.000256367 -0.172285 -0.015284 -0.0134227 -0.172706 -0.00413932 -0.0271839 -0.172643 0.00657612 
-0.0410995 -0.171671 0.0164836 -0.0552021 -0.170281 0.0246931 -0.0695999 -0.16823 0.0302217 
-0.0839568 -0.165512 0.033008 -0.0982591 -0.161906 0.0321379 -0.111748 -0.157359 0.0281955 
-0.124319 -0.151749 0.02078 0.0657716 -0.0709867 -0.0698133 0.0619342 -0.0766982 -0.0642615 
0.0614305 -0.0829092 -0.0594752 0.0610044 -0.0891868 -0.0547893 0.0617691 -0.096485 -0.0516437 
0.0624403 -0.103902 -0.04863 0.0622895 -0.112369 -0.0467765 0.061759 -0.120922 -0.0449633 
0.0589498 -0.129995 -0.0433916 0.0554867 -0.138943 -0.041617 0.0491172 -0.14734 -0.0389412 
0.0420175 -0.155246 -0.0357447 0.0323956 -0.16146 -0.0307493 0.0222319 -0.166906 -0.025096 
0.0105678 -0.170229 -0.0176206 -0.00138649 -0.172811 -0.00979995 -0.0139984 -0.173711 -0.00119662 
-0.026811 -0.174035 0.00697642 -0.0400014 -0.173276 0.0143395 -0.053362 -0.171936 0.0202791 
-0.0669912 -0.169679 0.023971 -0.0804868 -0.166619 0.0254034 -0.0938039 -0.16249 0.0238231 
-0.106272 -0.157343 0.0197131 -0.11778 -0.151048 0.0127434 0.0604595 -0.0778611 -0.0643157 
0.0566559 -0.0828758 -0.059215 0.0557478 -0.0883304 -0.0546131 0.0549078 -0.0938486 -0.0500912 
0.0551131 -0.10034 -0.0467937 0.0552395 -0.106941 -0.0436027 0.0546718 -0.114503 -0.0413483 
0.0537857 -0.122141 -0.0391276 0.0509891 -0.13023 -0.0371093 0.047648 -0.138215 -0.0349432 
0.0418868 -0.145738 -0.0321205 0.0355015 -0.15286 -0.0289294 0.0269601 -0.158595 -0.0244654 
0.017906 -0.163689 -0.0195568 0.00743175 -0.167009 -0.013417 -0.00338179 -0.169654 -0.00708967 
-0.0149644 -0.17077 -0.000337546 -0.02679 -0.171275 0.00599128 -0.0390729 -0.170632 0.0115233 
-0.0515005 -0.169326 0.0158435 -0.0641566 -0.166973 0.0182504 -0.0766268 -0.16376 0.0187787 
-0.0888489 -0.159399 0.0168024 -0.100233 -0.154014 0.0127348 -0.110669 -0.147471 0.0063033 
0.0554007 -0.0843438 -0.0583975 0.0516503 -0.0886757 -0.0538623 0.0503406 -0.0933724 -0.0495472 
0.0490899 -0.0981283 -0.0452908 0.0487434 -0.103793 -0.0419344 0.0483331 -0.109556 -0.0386598 
0.0473622 -0.116187 -0.0361046 0.0461318 -0.122883 -0.0335784 0.0433444 -0.129969 -0.0312259 
0.0401138 -0.136972 -0.0287778 0.0349134 -0.143609 -0.0259044 0.0291871 -0.149929 -0.0227986 
0.0216442 -0.155156 -0.0188904 0.0136223 -0.159862 -0.0147249 0.00427377 -0.163124 -0.00984686 
-0.00544586 -0.165779 -0.00492062 -0.0160067 -0.167059 0.000114967 -0.0268377 -0.167706 0.0047358 
-0.0381775 -0.16716 0.00857593 -0.0496348 -0.165884 0.0114038 -0.0612779 -0.163457 0.0126333 
-0.0726907 -0.160127 0.0123453 -0.0837964 -0.155592 0.010034 -0.0940834 -0.150039 0.00604991 
-0.103445 -0.143333 0.000174691 0.0512503 -0.0879701 -0.0519549 0.0476562 -0.0918865 -0.0481173 
0.0460575 -0.0960454 -0.0443055 0.0445085 -0.100255 -0.040535 0.0437216 -0.105237 -0.0373986 
0.042883 -0.110305 -0.0343242 0.0415896 -0.116121 -0.0317953 0.040081 -0.121993 -0.0292918 
0.0372818 -0.128197 -0.0269402 0.0341117 -0.134335 -0.0245262 0.0292932 -0.140175 -0.0218348 
0.0240231 -0.145754 -0.0189914 0.0171924 -0.150436 -0.0156231 0.00992751 -0.154676 -0.0121026 
0.00146006 -0.157693 -0.00816061 -0.00736494 -0.160162 -0.00424291 -0.0170003 -0.161387 -0.000380168 
-0.0268935 -0.161992 0.00309079 -0.0372718 -0.161431 0.00582428 -0.0477386 -0.160136 0.00769788 
-0.0583451 -0.157683 0.00821375 -0.0687035 -0.154345 0.00747829 -0.0787311 -0.149825 0.00507439 
-0.0879852 -0.144338 0.00130705 -0.0963651 -0.137757 -0.00400157 0.0472267 -0.0911978 -0.0454392 
0.0438033 -0.0947361 -0.0423176 0.0419313 -0.0983878 -0.0390392 0.0400997 -0.102081 -0.0357853 
0.038888 -0.106402 -0.0329078 0.0376361 -0.110794 -0.0300732 0.0360314 -0.115811 -0.0276165 
0.0342539 -0.120874 -0.0251815 0.0314399 -0.126215 -0.0228775 0.0283234 -0.131503 -0.0205417 
0.023862 -0.136558 -0.0180647 0.0190196 -0.141405 -0.0155083 0.0128612 -0.145536 -0.0126777 
0.00631493 -0.1493 -0.00978858 -0.00130562 -0.152047 -0.00673723 -0.00926378 -0.154302 -0.0037733 
-0.0179872 -0.155441 -0.00100754 -0.0269503 -0.155979 0.00139142 -0.0363648 -0.155387 0.00309994 
-0.0458382 -0.154066 0.00409439 -0.0554047 -0.151594 0.00396136 -0.0647091 -0.148263 0.00282987 
-0.073664 -0.143785 0.000367116 -0.0818942 -0.138397 -0.00316483 -0.0893054 -0.131979 -0.00790541 
0.0436787 -0.0919857 -0.0396622 0.0404851 -0.0953338 -0.0371137 0.0384846 -0.0986861 -0.0343387 
0.0365156 -0.102069 -0.0315781 0.0350306 -0.105926 -0.0290395 0.0335119 -0.109839 -0.0265312 
0.0316975 -0.114247 -0.02429 0.0297395 -0.118691 -0.0220674 0.0269196 -0.123349 -0.0199567 
0.0238454 -0.127961 -0.0178307 0.0196405 -0.132368 -0.0156373 0.0151092 -0.136597 -0.0134028 
0.00945011 -0.140214 -0.0110264 0.00345003 -0.143511 -0.00863758 -0.00349451 -0.145922 -0.00621407 
-0.0107408 -0.147887 -0.00390175 -0.0186708 -0.148839 -0.00184148 -0.0268095 -0.149228 -0.000115322 
-0.0353407 -0.148555 0.000981938 -0.0439056 -0.147192 0.00147472 -0.0525238 -0.144741 0.00101307 
-0.0608813 -0.141487 -0.000269102 -0.0688912 -0.137163 -0.00264529 -0.0762344 -0.132006 -0.00588663 
-0.0828238 -0.125908 -0.010106 0.040173 -0.0925568 -0.0339509 0.0372145 -0.0957315 -0.0319629 
0.0350983 -0.0988027 -0.0296885 0.0330048 -0.101895 -0.0274192 0.03126 -0.105305 -0.0252266 
0.0294876 -0.108756 -0.0230523 0.0274726 -0.112571 -0.0210394 0.0253418 -0.116412 -0.0190419 
0.0225168 -0.120405 -0.0171373 0.0194838 -0.124356 -0.0152329 0.0155265 -0.128126 -0.0133292 
0.0112959 -0.131747 -0.0114197 0.00612082 -0.134854 -0.00949017 0.0006516 -0.137686 -0.00758997 
-0.00563212 -0.139755 -0.00577093 -0.0121802 -0.141423 -0.00408337 -0.0193275 -0.14218 -0.00269379 
-0.0266511 -0.142412 -0.00160494 -0.0343063 -0.141654 -0.00108215 -0.0419703 -0.140248 -0.00105747 
-0.0496482 -0.13782 -0.00181928 -0.0570683 -0.134649 -0.00323032 -0.0641447 -0.13049 -0.00550703 
-0.0706129 -0.125576 -0.00845285 -0.0763936 -0.119809 -0.0121551 0.0369601 -0.0923479 -0.0294392 
0.0342406 -0.0954595 -0.0278252 0.032122 -0.0984242 -0.0259311 0.030019 -0.101405 -0.0240379 
0.0281546 -0.104628 -0.0221589 0.0262649 -0.107885 -0.0202919 0.0241533 -0.111441 -0.0185308 
0.0219438 -0.115017 -0.016783 0.0191468 -0.118709 -0.0151147 0.0161739 -0.122362 -0.0134534 
0.0124197 -0.125838 -0.0118236 0.0084323 -0.129174 -0.0102036 0.00363942 -0.132033 -0.008618 
-0.00140647 -0.134634 -0.00707769 -0.00715303 -0.136522 -0.00566283 -0.0131263 -0.13803 -0.00437953 
-0.0196135 -0.138675 -0.00339443 -0.0262454 -0.138817 -0.00267634 -0.0331498 -0.138011 -0.00246085 
-0.0400452 -0.136585 -0.00266558 -0.0469263 -0.134179 -0.00353382 -0.0535607 -0.131067 -0.00493519 
-0.0598663 -0.127013 -0.0070474 -0.065621 -0.122248 -0.00969959 -0.0707532 -0.116679 -0.0129622 
0.0337595 -0.0921059 -0.0249787 0.0312793 -0.0951591 -0.0237307 0.0291632 -0.0980246 -0.0222116 
0.0270555 -0.100901 -0.0206896 0.0250775 -0.103949 -0.0191229 0.0230764 -0.107023 -0.0175621 
0.0208726 -0.110334 -0.0160538 0.0185882 -0.113658 -0.0145566 0.0158207 -0.117067 -0.0131259 
0.0129088 -0.120437 -0.0117088 0.00935569 -0.123632 -0.0103521 0.00560909 -0.126698 -0.0090202 
0.0011941 -0.129319 -0.00777409 -0.00343305 -0.1317 -0.00658818 -0.00864771 -0.133414 -0.00556898 
-0.0140514 -0.134768 -0.00468056 -0.0198836 -0.135305 -0.00408862 -0.0258292 -0.13536 -0.00372995 
-0.0319882 -0.134508 -0.00381039 -0.0381205 -0.133062 -0.00423437 -0.0442109 -0.130678 -0.0052008 
-0.0500661 -0.127622 -0.00658659 -0.0556077 -0.123672 -0.00853154 -0.060656 -0.119052 -0.0108902 
-0.0651464 -0.113674 -0.0137164 0.0972997 -0.0112769 -0.0643251 0.0929105 -0.00640512 -0.0683704 
0.0894806 -0.00127156 -0.0724724 0.0860923 0.00389396 -0.0766143 0.0833395 0.00954955 -0.0813652 
0.0806154 0.0152524 -0.0862043 0.0781431 0.0213709 -0.0918203 0.0756793 0.0274773 -0.0974693 
0.0732659 0.0335109 -0.103316 0.070889 0.0393328 -0.108852 0.0686738 0.044214 -0.113004 
0.0665467 0.0485677 -0.116131 0.0647233 0.0510995 -0.115711 0.0628767 0.0528329 -0.113566 
0.0609653 0.0523555 -0.106643 0.058628 0.0509727 -0.0981107 0.0553251 0.0475376 -0.0859325 
0.0511293 0.0431305 -0.0733466 0.0452527 0.0368939 -0.0599936 0.0383586 0.0294501 -0.0478569 
0.0298579 0.0201003 -0.0376407 0.0207094 0.00912785 -0.0299174 0.0106969 -0.00400825 -0.0255181 
0.000644198 -0.0191692 -0.0241859 -0.00945413 -0.036619 -0.0263211 0.102248 -0.0111898 -0.0631548 
0.0979222 -0.00657919 -0.0675423 0.094756 -0.00154051 -0.0721028 0.0916357 0.00354692 -0.0767131 
0.0892182 0.00938183 -0.0820878 0.0868135 0.0152994 -0.0875667 0.0845207 0.0219443 -0.0939627 
0.082171 0.0286205 -0.100391 0.0794797 0.0354841 -0.107013 0.0767021 0.0421444 -0.113249 
0.073541 0.0479014 -0.11777 0.070342 0.053049 -0.121062 0.0670121 0.0560917 -0.120106 
0.0636129 0.0581743 -0.117142 0.060022 0.0575983 -0.108616 0.0560385 0.0559755 -0.0982779 
0.051165 0.0519796 -0.0838311 0.0454083 0.0469667 -0.0689792 0.0379892 0.0400395 -0.053365 
0.0294681 0.0319328 -0.0391971 0.0192067 0.0219636 -0.0273129 0.00817153 0.0104181 -0.018309 
-0.00389534 -0.00322906 -0.0131456 -0.016057 -0.0188259 -0.0114332 -0.0283259 -0.0366267 -0.0136221 
0.107 -0.0109215 -0.0621473 0.102803 -0.00675508 -0.0668084 0.100022 -0.00200968 -0.0717596 
0.0972935 0.00280024 -0.0767717 0.0953816 0.0085995 -0.0827189 0.0934673 0.0145164 -0.0887891 
0.0915319 0.0214684 -0.0959408 0.0894621 0.0284979 -0.103126 0.0865861 0.0359922 -0.110509 
0.0834671 0.043299 -0.117423 0.0792679 0.0497723 -0.122248 0.0748639 0.0555633 -0.125615 
0.0697525 0.0589979 -0.123944 0.0645182 0.0613234 -0.119961 0.0589433 0.0605778 -0.109579 
0.0530498 0.0586678 -0.0971918 0.0464343 0.0541189 -0.0802579 0.0389982 0.0485425 -0.0629513 
0.0300177 0.041032 -0.044943 0.0198779 0.0324061 -0.0286508 0.00790759 0.0220192 -0.0150681 
-0.00495148 0.0101389 -0.00481206 -0.0189955 -0.00373242 0.00100846 -0.0331578 -0.0194374 0.00291974 
-0.047454 -0.0372152 0.000411855 0.111055 -0.0108074 -0.0614871 0.107036 -0.00732712 -0.0662976 
0.10473 -0.00317124 -0.0715099 0.102488 0.00105953 -0.0767955 0.101221 0.00643853 -0.0832054 
0.099939 0.0119594 -0.0897626 0.098528 0.0187285 -0.0976161 0.0968985 0.0256112 -0.105516 
0.0939584 0.033175 -0.113695 0.0905912 0.0405743 -0.121326 0.0853259 0.0472422 -0.126525 
0.0796551 0.0531976 -0.13001 0.0725834 0.056692 -0.127572 0.0653351 0.0590023 -0.122473 
0.0575979 0.0580334 -0.11001 0.0496601 0.0558564 -0.0953431 0.0412675 0.0509408 -0.0756811 
0.0321624 0.0450318 -0.0557163 0.0217164 0.0372531 -0.0351814 0.0100709 0.0284454 -0.0166824 
-0.00346871 0.018013 -0.00139784 -0.018005 0.00619377 0.010049 -0.0338703 -0.00747456 0.0163788 
-0.0498462 -0.0228293 0.0182658 -0.0659473 -0.0400903 0.0151303 0.114543 -0.0108189 -0.0611097 
0.110742 -0.00822195 -0.0659685 0.108985 -0.00489696 -0.0713364 0.107304 -0.00149114 -0.076791 
0.106796 0.00315422 -0.083574 0.106262 0.00795689 -0.0905333 0.105512 0.0141439 -0.0990448 
0.104453 0.0204722 -0.107626 0.101547 0.0276482 -0.116626 0.0980078 0.0346885 -0.125008 
0.0916538 0.041126 -0.130638 0.0846658 0.0468556 -0.134276 0.0754878 0.0501393 -0.131028 
0.0660799 0.052224 -0.124735 0.0560353 0.0509883 -0.110007 0.0459437 0.0485603 -0.0928728 
0.0357454 0.0434299 -0.0702865 0.0249798 0.0373767 -0.0474979 0.0131464 0.0295865 -0.0243282 
8.7047e-05 0.0208718 -0.00355506 -0.0149079 0.0106973 0.013434 -0.0310019 -0.00073837 0.0260215 
-0.0485614 -0.0138557 0.0327401 -0.0661985 -0.0284867 0.0344209 -0.0839233 -0.0448287 0.0304065 
0.116743 -0.0113743 -0.0612191 0.113156 -0.00988249 -0.0659347 0.11194 -0.00768586 -0.0712444 
0.110814 -0.00541082 -0.0766533 0.111061 -0.00193357 -0.0835829 0.111276 0.00169711 -0.090719 
0.111212 0.00667791 -0.0996719 0.110757 0.0118037 -0.108728 0.107964 0.0177996 -0.118407 
0.104341 0.0236917 -0.127419 0.0970333 0.029123 -0.133473 0.088871 0.0339228 -0.137278 
0.0777574 0.0365412 -0.133309 0.0663653 0.0380712 -0.125916 0.0542023 0.0365869 -0.109039 
0.0421457 0.0340225 -0.0895733 0.0303306 0.0290095 -0.0642413 0.0180891 0.0231698 -0.0388279 
0.00504505 0.0157739 -0.0132609 -0.00924888 0.00755615 0.00954961 -0.0255164 -0.00195912 0.0280077 
-0.0429678 -0.0125878 0.0415091 -0.0619977 -0.0247008 0.0484017 -0.0810403 -0.038111 0.0496658 
-0.100097 -0.0529876 0.0445671 0.118055 -0.012305 -0.0616642 0.114679 -0.0120711 -0.0661044 
0.113999 -0.011208 -0.0712085 0.113422 -0.0102747 -0.0764238 0.114423 -0.00826514 -0.0833438 
0.115388 -0.00611942 -0.0905012 0.116026 -0.00277525 -0.0997464 0.116198 0.000701071 -0.109136 
0.113572 0.0049704 -0.119392 0.109928 0.00917005 -0.128954 0.101759 0.01306 -0.135427 
0.0925206 0.0164447 -0.139408 0.0795891 0.0180842 -0.134779 0.066334 0.0188324 -0.126353 
0.0521828 0.0171123 -0.107406 0.0382916 0.0144902 -0.085702 0.0249898 0.00982384 -0.0577474 
0.0113996 0.00444436 -0.0298463 -0.00273304 -0.00227741 -0.00204582 -0.018138 -0.00971947 0.0226387 
-0.035552 -0.0182989 0.0424033 -0.0542226 -0.0278284 0.0566624 -0.0745685 -0.0386246 0.0635808 
-0.0948405 -0.0504713 0.064283 -0.115029 -0.0635055 0.0579582 0.117597 -0.0141778 -0.0626371 
0.11437 -0.0152897 -0.0665501 0.1141 -0.0159024 -0.0711567 0.113943 -0.0164597 -0.0758821 
0.115509 -0.0161677 -0.0824272 0.117034 -0.0157726 -0.0892271 0.118185 -0.0144713 -0.0982689 
0.118816 -0.0130723 -0.107478 0.116333 -0.0110867 -0.117692 0.112708 -0.00913917 -0.1272 
0.104007 -0.00736076 -0.133575 0.0940929 -0.00590846 -0.137343 0.079987 -0.00558273 -0.132102 
0.0655105 -0.0058585 -0.122887 0.0500077 -0.00779997 -0.102664 0.0348381 -0.010405 -0.0796242 
0.0204235 -0.014514 -0.0501993 0.00579274 -0.0192176 -0.0209303 -0.00924479 -0.0250405 0.00804536 
-0.0255664 -0.0314825 0.0336703 -0.0439157 -0.0389021 0.0540045 -0.0635415 -0.0470716 0.0684598 
-0.0848693 -0.0562409 0.0750763 -0.106007 -0.0661575 0.075065 -0.126929 -0.0769188 0.0675614 
0.116111 -0.0165977 -0.0639165 0.112997 -0.0191062 -0.0671559 0.113065 -0.0212774 -0.0710957 
0.113253 -0.0234118 -0.0751591 0.115275 -0.0249824 -0.0811171 0.117248 -0.0264924 -0.0873397 
0.118801 -0.0274698 -0.0958903 0.119796 -0.0283964 -0.104621 0.117442 -0.0290182 -0.114431 
0.11386 -0.0296477 -0.123537 0.104818 -0.0303119 -0.129514 0.094459 -0.0310925 -0.132842 
0.0795523 -0.032275 -0.127017 0.064227 -0.0337153 -0.117156 0.0477422 -0.0358697 -0.0961167 
0.031617 -0.0384144 -0.0722652 0.0163069 -0.0418437 -0.042039 0.000814402 -0.0457462 -0.0120522 
-0.0150212 -0.0505395 0.017484 -0.0321467 -0.0558512 0.0435071 -0.0513087 -0.0619811 0.0639832 
-0.0717365 -0.0686392 0.0783086 -0.093852 -0.0760014 0.084433 -0.115644 -0.0837749 0.0836201 
-0.13707 -0.0920134 0.0749652 0.11276 -0.0203175 -0.0655246 0.109673 -0.0240731 -0.0678453 
0.109896 -0.0276546 -0.0708399 0.11024 -0.0312184 -0.073957 0.112433 -0.0345129 -0.0789549 
0.114572 -0.0377895 -0.0842072 0.116228 -0.0409077 -0.0916977 0.117317 -0.0440209 -0.0993477 
0.115008 -0.047104 -0.107955 0.111471 -0.0501687 -0.115871 0.102478 -0.0531517 -0.120715 
0.0921607 -0.056063 -0.123043 0.0772698 -0.0587264 -0.116677 0.0619067 -0.0613383 -0.10651 
0.0452359 -0.0638081 -0.0858192 0.0288417 -0.066414 -0.0624862 0.0130746 -0.0693281 -0.0331646 
-0.00291859 -0.0725829 -0.0041168 -0.0193372 -0.076479 0.0244156 -0.0370188 -0.0807595 0.0494678 
-0.0566946 -0.085647 0.0690248 -0.0775502 -0.0908007 0.0824622 -0.0999789 -0.0963094 0.08774 
-0.121939 -0.101865 0.0860945 -0.14337 -0.107475 0.0766226 0.108505 -0.0246675 -0.0672921 
0.105404 -0.0295977 -0.0685753 0.105693 -0.0345175 -0.0704895 0.106101 -0.0394393 -0.0725227 
0.108329 -0.0443906 -0.0763796 0.110494 -0.0493665 -0.0804709 0.112108 -0.0545586 -0.0866255 
0.113162 -0.0597909 -0.0929033 0.110856 -0.0652645 -0.0999202 0.107366 -0.0706955 -0.106264 
0.0986106 -0.0759375 -0.109619 0.0885705 -0.0809301 -0.110674 0.0740914 -0.085061 -0.103788 
0.0590839 -0.088848 -0.0934816 0.0426129 -0.0916829 -0.0737033 0.0262825 -0.0944087 -0.0515338 
0.010271 -0.0968875 -0.0239439 -0.00604778 -0.099569 0.0033615 -0.0229451 -0.102632 0.0301316 
-0.0410628 -0.105929 0.053549 -0.0611074 -0.109597 0.0716726 -0.0822093 -0.11325 0.0838544 
-0.104721 -0.116883 0.0881139 -0.126614 -0.120185 0.0856206 -0.147809 -0.123115 0.0754938 
0.102854 -0.030446 -0.0687527 0.0996845 -0.0361601 -0.0689099 0.0998872 -0.0419876 -0.0696453 
0.100202 -0.0478321 -0.0704925 0.102239 -0.0539387 -0.073056 0.104208 -0.0600993 -0.0758254 
0.105573 -0.0667351 -0.0804063 0.106408 -0.0734375 -0.0850679 0.104063 -0.080539 -0.0902131 
0.10063 -0.0875805 -0.0947294 0.0923584 -0.0943555 -0.0964508 0.082895 -0.100782 -0.0961797 
0.0693143 -0.106007 -0.0890255 0.0551565 -0.110723 -0.0789626 0.0394004 -0.114031 -0.060845 
0.023611 -0.11706 -0.0406869 0.00774584 -0.119457 -0.0159042 -0.00852827 -0.121903 0.00858093 
-0.0255723 -0.124445 0.0325058 -0.0437569 -0.12703 0.0533309 -0.0637426 -0.129685 0.0692615 
-0.0846149 -0.132041 0.0796801 -0.106669 -0.133999 0.0827493 -0.127977 -0.135292 0.0795291 
-0.148441 -0.135833 0.0691989 0.0966461 -0.036796 -0.0700906 0.0933849 -0.0431377 -0.0690865 
0.0934398 -0.0497004 -0.0686035 0.0935989 -0.0562936 -0.0682241 0.0953556 -0.0633549 -0.0694332 