# vtk DataFile Version 2.0
vtk output
ASCII
DATASET RECTILINEAR_GRID
DIMENSIONS 25 25 25
X_COORDINATES 25 float
-5 -4.79167 -4.58333 -4.375 -4.16667 -3.95833 -3.75 -3.54167 -3.33333 
-3.125 -2.91667 -2.70833 -2.5 -2.29167 -2.08333 -1.875 -1.66667 -1.45833 
-1.25 -1.04167 -0.833333 -0.625 -0.416667 -0.208333 0 
Y_COORDINATES 25 float
5 5.20833 5.41667 5.625 5.83333 6.04167 6.25 6.45833 6.66667 
6.875 7.08333 7.29167 7.5 7.70833 7.91667 8.125 8.33333 8.54167 
8.75 8.95833 9.16667 9.375 9.58333 9.79167 10 
Z_COORDINATES 25 float
5 5.20833 5.41667 5.625 5.83333 6.04167 6.25 6.45833 6.66667 
6.875 7.08333 7.29167 7.5 7.70833 7.91667 8.125 8.33333 8.54167 
8.75 8.95833 9.16667 9.375 9.58333 9.79167 10 
POINT_DATA 15625
VECTORS grad float
0.0413493 -0.0517999 -0.00104292 0.0361215 -0.0590808 -0.00382493 0.02858 -0.064958 -0.00630605 
0.0189916 -0.0695933 -0.008521 0.00787182 -0.0707301 -0.00992965 -0.00439655 -0.0692431 -0.0107336 
-0.0159472 -0.0632192 -0.0106354 -0.0270434 -0.0543219 -0.00996599 -0.0348063 -0.0419129 -0.00894515 
-0.0407984 -0.0276382 -0.00773763 -0.0415261 -0.012097 -0.00683303 -0.0399314 0.00400296 -0.00606206 
-0.0326633 0.0180296 -0.00571515 -0.0233465 0.0313076 -0.00552136 -0.0109369 0.0385453 -0.00538642 
0.00236804 0.0440344 -0.00526852 0.0140318 0.0431024 -0.00510801 0.0253264 0.0407255 -0.00493792 
0.0321986 0.0357902 -0.00511879 0.0383339 0.0304284 -0.00535816 0.0408113 0.0256964 -0.00625516 
0.0428731 0.021036 -0.00722689 0.0433353 0.0179834 -0.00883196 0.0436932 0.0150356 -0.0104783 
0.0439766 0.0136163 -0.0125648 0.0352443 -0.0474843 0.00447327 0.0307313 -0.0532714 0.00251512 
0.0246188 -0.0577226 0.000822232 0.0170916 -0.0609922 -0.000635997 0.00859057 -0.061425 -0.00155362 
-0.000640679 -0.0597303 -0.0020658 -0.00924944 -0.0544663 -0.00201245 -0.0174639 -0.0469417 -0.00160093 
-0.0231509 -0.0365682 -0.000960851 -0.027495 -0.0246812 -0.000199344 -0.0278967 -0.0117901 0.000374804 
-0.026559 0.0015439 0.000866293 -0.0211163 0.0131211 0.0010291 -0.0141912 0.024064 0.00107322 
-0.00500682 0.0303607 0.000911325 0.00483162 0.0353124 0.0006898 0.0138089 0.0352712 0.000289239 
0.0225923 0.0341066 -0.000151605 0.0285137 0.0305268 -0.000968381 0.0339581 0.0265445 -0.00184781 
0.0367589 0.0226501 -0.0032636 0.0392594 0.0187658 -0.00474035 0.0404385 0.0160179 -0.00672476 
0.0415313 0.0133441 -0.00874229 0.0424949 0.0119537 -0.0111233 0.0304551 -0.0427776 0.00921963 
0.0267018 -0.0473562 0.00780924 0.0218584 -0.0507265 0.0066348 0.0160506 -0.0530279 0.00566908 
0.00963221 -0.0530521 0.00508946 0.00275595 -0.0513684 0.0047994 -0.00358709 -0.0469104 0.00488218 
-0.00959242 -0.0406954 0.00520108 -0.0136949 -0.0322604 0.00565679 -0.0167865 -0.022646 0.00618518 
-0.0169724 -0.0122843 0.00655345 -0.0158764 -0.00159282 0.00685109 -0.0118114 0.00770632 0.00683961 
-0.00667429 0.0165027 0.0067165 0.00014424 0.0218469 0.00629344 0.0074495 0.0261919 0.00578355 
0.0143462 0.0267696 0.00496188 0.021151 0.0264998 0.00407007 0.0261303 0.0241216 0.00276304 
0.0308054 0.0213919 0.00138681 0.0336594 0.0183952 -0.000472385 0.0363065 0.0153681 -0.00238646 
0.0379823 0.0130497 -0.00473446 0.0395949 0.0107775 -0.00711076 0.0411378 0.00951154 -0.00980158 
0.0265107 -0.0384506 0.0132826 0.0234834 -0.0421398 0.012251 0.0197404 -0.0447477 0.0114398 
0.0153644 -0.0463991 0.0108235 0.0106267 -0.0462207 0.010494 0.00561778 -0.0446699 0.0103797 
0.00105154 -0.0409674 0.0105111 -0.00323431 -0.0359022 0.0107982 -0.00611143 -0.029121 0.0111534 
-0.00824016 -0.0214281 0.0115448 -0.0082628 -0.0131794 0.0117781 -0.00735627 -0.00468533 0.0119417 
-0.00433004 0.00273208 0.0117921 -0.000538354 0.00976069 0.0115295 0.00449898 0.0142506 0.0108934 
0.00989691 0.0180055 0.0101492 0.0151755 0.0189374 0.0089952 0.0204273 0.0192341 0.00774899 
0.0245833 0.0177376 0.00604746 0.0285566 0.0159423 0.00427004 0.0313446 0.0136806 0.00203251 
0.0339979 0.0113659 -0.000257316 0.0360074 0.00944216 -0.00293916 0.0379749 0.00754386 -0.00564659 
0.0399818 0.00640712 -0.00864099 0.0232548 -0.034433 0.0167887 0.0209257 -0.0374929 0.0159983 
0.0181459 -0.039598 0.0154238 0.0149673 -0.0408586 0.0150403 0.0115828 -0.0406454 0.0148894 
0.00804383 -0.0393269 0.014913 0.00485604 -0.0363387 0.0151088 0.00189065 -0.032293 0.0154135 
-5.37042e-05 -0.0269336 0.0157366 -0.00145563 -0.0208762 0.0160693 -0.00135774 -0.0144011 0.0162255 
-0.000598148 -0.00774181 0.0163037 0.00166551 -0.00188316 0.0160456 0.00447231 0.00368635 0.015666 
0.00820487 0.00740173 0.0148561 0.0122054 0.0105804 0.0139216 0.0162427 0.0116506 0.0125076 
0.0202883 0.0122463 0.0109857 0.0237177 0.011371 0.00896765 0.0270443 0.0102506 0.00686696 
0.0296692 0.00859155 0.00430409 0.0322144 0.00687132 0.0016887 0.0344244 0.00531379 -0.00130277 
0.0366126 0.00376687 -0.00431876 0.0389896 0.00276311 -0.00761168 0.0203835 -0.0311292 0.0197157 
0.0187148 -0.0337772 0.0190665 0.0167736 -0.0355777 0.018639 0.0145915 -0.0366285 0.0184075 
0.0122963 -0.0364796 0.0183804 0.00991642 -0.0354311 0.0185065 0.00780009 -0.0330747 0.0187607 
0.00585071 -0.02989 0.0190962 0.00462165 -0.0256912 0.0194158 0.00377525 -0.0209536 0.0197271 
0.00397475 -0.0158938 0.0198421 0.00463567 -0.0106919 0.0198704 0.00634757 -0.00607834 0.0195369 
0.00843898 -0.00167723 0.0190726 0.0112129 0.00136775 0.0181306 0.0141844 0.00402019 0.0170502 
0.0172793 0.00509136 0.0154344 0.020402 0.00580675 0.0136981 0.0232329 0.00532403 0.0114275 
0.0260152 0.00464163 0.00906793 0.0284509 0.00341065 0.00623396 0.0308472 0.00211733 0.00334609 
0.0331625 0.000834006 8.40865e-05 0.0354725 -0.000448669 -0.00320233 0.0381167 -0.00136795 -0.00676646 
0.0177775 -0.0283177 0.0222433 0.016743 -0.0307037 0.0216665 0.0155547 -0.0323362 0.021324 
0.0142304 -0.033302 0.0211889 0.0128427 -0.0332859 0.0212476 0.0114073 -0.0325333 0.0214518 
0.0101507 -0.0307519 0.0217606 0.00900743 -0.0283188 0.0221357 0.00834367 -0.0251005 0.0224718 
0.00793468 -0.0214651 0.0227871 0.00822272 -0.0175734 0.0228857 0.00881827 -0.0135687 0.0228887 
0.0101238 -0.00998386 0.0225026 0.0116857 -0.00655068 0.0219758 0.0137397 -0.00410429 0.0209305 
0.0159362 -0.00194354 0.019735 0.0182949 -0.000966047 0.0179575 0.0206901 -0.000254786 0.0160491 
0.0230108 -0.000502606 0.01357 0.0253192 -0.000910273 0.0109958 0.0275476 -0.00183361 0.00792818 
0.029767 -0.00281554 0.00480444 0.0321219 -0.00388815 0.00129884 0.0344856 -0.00496667 -0.00223167 
0.0373261 -0.00583492 -0.0060482 0.0152999 -0.0263569 0.0242481 0.0148655 -0.0285818 0.0236815 
0.0143408 -0.0301338 0.0233673 0.0137363 -0.0310905 0.0232763 0.0130843 -0.0312323 0.0233804 
0.0123966 -0.0307631 0.0236309 0.0118104 -0.0294714 0.0239764 0.0112885 -0.0276588 0.0243822 
0.0110615 -0.025227 0.0247359 0.0109912 -0.0224663 0.0250619 0.0113606 -0.0194947 0.0251564 
0.0119241 -0.0164299 0.0251486 0.0129484 -0.0136628 0.0247298 0.014139 -0.011003 0.0241627 
0.0156761 -0.0090673 0.023045 0.0173136 -0.00734114 0.021768 0.0191244 -0.00650953 0.0198729 
0.0209741 -0.00587919 0.0178386 0.0228881 -0.00601916 0.0152035 0.0248129 -0.00628751 0.0124683 
0.0268423 -0.00702647 0.00922062 0.0288836 -0.00781891 0.00591473 0.0312207 -0.00876694 0.00221617 
0.033577 -0.00972511 -0.00150802 0.036521 -0.0105999 -0.00552885 0.0128969 -0.0248902 0.0259494 
0.0130427 -0.0270124 0.0253569 0.0131298 -0.0285347 0.0250378 0.0131649 -0.0295263 0.0249607 
0.0131489 -0.0298408 0.0250867 0.0130947 -0.0296476 0.025365 0.0130689 -0.0287961 0.025737 
0.0130612 -0.0275279 0.0261682 0.0131963 -0.02577 0.0265402 0.0134072 -0.0237519 0.0268808 
0.013854 -0.0215563 0.0269781 0.0144048 -0.0192822 0.026968 0.0152204 -0.0172101 0.0265283 
0.0161316 -0.0152109 0.0259335 0.0172698 -0.0137348 0.0247616 0.0184737 -0.01241 0.0234227 
0.0198458 -0.0117546 0.0214354 0.0212558 -0.0112498 0.0193022 0.0228232 -0.0113557 0.0165415 
0.0244167 -0.0115633 0.0136763 0.0262519 -0.0121895 0.0102798 0.0281145 -0.0128632 0.00682292 
0.0304004 -0.0137367 0.00296079 0.0327139 -0.0146232 -0.000927793 0.0357075 -0.015538 -0.00512499 
0.010582 -0.0242955 0.0271511 0.0112523 -0.0263278 0.026494 0.0118676 -0.0278305 0.0261325 
0.0124342 -0.0288647 0.0260324 0.0129317 -0.0293324 0.0261474 0.0133773 -0.0293752 0.0264238 
0.0137882 -0.0288842 0.026798 0.014177 -0.028055 0.0272341 0.0145936 -0.0268315 0.0276102 
0.015025 -0.0253985 0.0279544 0.0155443 -0.0238126 0.0280501 0.0161022 -0.0221592 0.0280363 
0.0167833 -0.0206408 0.0275827 0.0175088 -0.0191711 0.0269704 0.0183701 -0.0180829 0.0257656 
0.0192708 -0.017105 0.0243894 0.0203241 -0.0166341 0.022347 0.0214118 -0.0162772 0.0201546 
0.0227078 -0.0164094 0.0173182 0.0240386 -0.016623 0.0143745 0.0256942 -0.0172083 0.0108869 
0.0273866 -0.017836 0.00733744 0.0295811 -0.0186931 0.00337329 0.0318083 -0.0195651 -0.000617921 
0.0347663 -0.0205591 -0.00492659 0.00830993 -0.0241235 0.0281104 0.00947753 -0.0260721 0.0273702 
0.0105805 -0.0275602 0.0269479 0.0116263 -0.0286408 0.0268069 0.0125778 -0.0292522 0.0268951 
0.0134586 -0.0295118 0.027155 0.014246 -0.0293423 0.0275198 0.0149742 -0.0289011 0.0279509 
0.0156333 -0.0281444 0.0283241 0.0162558 -0.02722 0.0286665 0.0168451 -0.0261633 0.0287586 
0.0174198 -0.0250481 0.0287403 0.0180023 -0.0240149 0.0282763 0.0185875 -0.0230112 0.0276513 
0.0192312 -0.0222761 0.0264241 0.0198919 -0.0216187 0.0250226 0.0206845 -0.0213363 0.0229429 
0.0215068 -0.0211383 0.0207107 0.0225681 -0.0213259 0.0178227 0.0236691 -0.0215777 0.0148256 
0.0251523 -0.0221573 0.0112748 0.0266789 -0.022774 0.00766107 0.0287624 -0.0236429 0.00362476 
0.0308822 -0.0245283 -0.000439132 0.0337632 -0.0256204 -0.00482781 0.0062119 -0.024734 0.0285822 
0.00778952 -0.0265683 0.0277398 0.00928612 -0.0280121 0.0272348 0.0107111 -0.0291106 0.0270284 
0.0120152 -0.0298236 0.0270641 0.0132288 -0.0302474 0.0272813 0.0143017 -0.0303256 0.0276114 
0.0152857 -0.0301848 0.0280129 0.0161304 -0.0297897 0.0283619 0.0169011 -0.0292594 0.0286829 
0.0175539 -0.0286144 0.0287576 0.0181548 -0.0279188 0.0287236 0.0186824 -0.0272698 0.0282473 
0.0191835 -0.0266376 0.0276113 0.0196852 -0.0261954 0.0263759 0.020187 -0.0258082 0.0249671 
0.0207967 -0.0257017 0.0228822 0.0214306 -0.0256584 0.0206452 0.0223098 -0.0259236 0.0177536 
0.0232299 -0.0262403 0.0147529 0.0245534 -0.0268491 0.0111982 0.0259227 -0.027491 0.00758057 
0.0278648 -0.0284005 0.00353871 0.0298443 -0.0293275 -0.000530834 0.0325761 -0.0305286 -0.00492685 
0.00418351 -0.0256576 0.0288589 0.00613621 -0.0273651 0.0279067 0.00798883 -0.028753 0.0273103 
0.00975292 -0.029858 0.0270286 0.0113691 -0.0306557 0.0270016 0.0128745 -0.0312227 0.0271655 
0.0141967 -0.0315189 0.0274508 0.015403 -0.0316435 0.0278131 0.0164104 -0.0315679 0.0281293 
0.0173121 -0.0313858 0.028421 0.0180258 -0.0311056 0.0284727 0.0186567 -0.0307821 0.0284185 
0.0191469 -0.030477 0.0279292 0.0195864 -0.0301785 0.0272828 0.0199763 -0.0300052 0.0260451 
0.0203517 -0.029868 0.0246362 0.0208095 -0.0299324 0.0225589 0.0212858 -0.0300421 0.0203312 
0.0220042 -0.0303939 0.0174549 0.0227629 -0.030786 0.0144706 0.0239318 -0.031438 0.0109358 
0.0251473 -0.0321195 0.00733841 0.0269358 -0.0330812 0.00331765 0.0287616 -0.0340612 -0.000730736 
0.0313153 -0.0353755 -0.00510502 0.00244058 -0.0271829 0.0286689 0.00466213 -0.0287262 0.0276069 
0.00676885 -0.0300193 0.0269128 0.00877398 -0.0310911 0.0265441 0.0106104 -0.0319248 0.0264385 
0.0123203 -0.03258 0.0265303 0.0138174 -0.0330267 0.0267504 0.0151796 -0.0333414 0.0270516 
0.0163036 -0.0335004 0.0273144 0.0173011 -0.0335767 0.0275568 0.0180657 -0.0335709 0.0275701 
0.0187275 -0.033529 0.0274823 0.0192047 -0.033489 0.026975 0.0196154 -0.0334498 0.0263162 
0.01994 -0.0334925 0.0250859 0.0202396 -0.0335588 0.02369 0.0205961 -0.0337717 0.0216468 
0.0209653 -0.0340175 0.019458 0.0215592 -0.0344574 0.0166392 0.0221906 -0.0349297 0.0137154 
0.0232154 -0.0356364 0.0102543 0.024285 -0.0363697 0.0067322 0.0258999 -0.0373894 0.00279482 
0.0275505 -0.0384278 -0.00116966 0.029876 -0.0398408 -0.00545328 0.000790227 -0.0289035 0.0283274 
0.00324618 -0.0302704 0.0271557 0.00557393 -0.0314562 0.0263619 0.00778828 -0.0324817 0.0259024 
0.00981514 -0.0333358 0.0257132 0.0117014 -0.0340611 0.0257267 0.0133491 -0.0346365 0.0258748 
0.0148457 -0.0351168 0.026108 0.0160715 -0.035483 0.0263108 0.0171534 -0.0357884 0.0264974 
0.0179654 -0.0360278 0.0264672 0.0186585 -0.0362381 0.0263414 0.0191306 -0.0364378 0.0258145 
0.019523 -0.0366336 0.0251427 0.0197975 -0.0368752 0.0239228 0.0200378 -0.03713 0.0225443 
0.0203093 -0.0374841 0.0205439 0.0205877 -0.0378606 0.0184035 0.021069 -0.0383891 0.0156557 
0.0215841 -0.038943 0.0128067 0.0224683 -0.0397081 0.00943689 0.0233945 -0.0404973 0.00600792 
0.0248295 -0.0415769 0.00217411 0.0262976 -0.0426754 -0.00168611 0.0283788 -0.0441823 -0.0058567 
-0.000490908 -0.0309968 0.0275616 0.00209163 -0.0321629 0.0262978 0.00454053 -0.0332111 0.0254136 
0.00687122 -0.0341552 0.0248652 0.00900484 -0.0349858 0.0245886 0.0109906 -0.0357315 0.0245158 
0.0127246 -0.0363766 0.0245807 0.0142991 -0.0369581 0.0247328 0.0155863 -0.0374606 0.0248621 
0.0167208 -0.0379212 0.0249793 0.0175667 -0.0383321 0.024895 0.0182852 -0.038721 0.0247219 
0.0187627 -0.0390949 0.024172 0.0191531 -0.0394635 0.023486 0.0194041 -0.0398564 0.0222841 
0.0196149 -0.0402562 0.0209328 0.0198328 -0.0407252 0.0189949 0.0200523 -0.0412096 0.0169249 
0.0204458 -0.0418172 0.0142798 0.0208683 -0.0424452 0.0115389 0.0216221 -0.043266 0.00830185 
0.0224137 -0.0441086 0.00500845 0.0236617 -0.0452388 0.00132722 0.0249396 -0.0463878 -0.00237933 
0.0267544 -0.047958 -0.00638221 -0.00167737 -0.0331856 0.026687 0.00100411 -0.0341447 0.0253356 
0.00354854 -0.0350477 0.0243634 0.00597176 -0.0359011 0.0237266 0.00819069 -0.0366972 0.0233616 
0.0102564 -0.0374503 0.0232004 0.0120602 -0.0381501 0.0231793 0.013698 -0.0388162 0.0232468 
0.0150362 -0.039437 0.0232992 0.0162151 -0.0400338 0.0233436 0.0170913 -0.0405972 0.0232026 
0.017834 -0.0411458 0.0229797 0.0183194 -0.0416773 0.0224059 0.018712 -0.0422026 0.0217054 
0.0189465 -0.0427345 0.0205233 0.0191352 -0.0432684 0.0192019 0.0193076 -0.0438454 0.0173315 
0.0194764 -0.044432 0.0153377 0.0197884 -0.045116 0.0128034 0.0201244 -0.0458163 0.010179 
0.0207505 -0.046692 0.00708538 0.0214097 -0.0475876 0.00393843 0.0224691 -0.048766 0.000422325 
0.0235546 -0.0499628 -0.00311787 0.0250975 -0.0515887 -0.00693901 -0.00245574 -0.0355113 0.0254582 
0.000228167 -0.0362595 0.0240498 0.00277942 -0.0370035 0.0230114 0.00521335 -0.037744 0.0223004 
0.00744485 -0.0384737 0.0218551 0.00952453 -0.0391954 0.0216091 0.011343 -0.0399028 0.0215021 
0.012996 -0.040601 0.0214831 0.0143491 -0.0412825 0.0214556 0.0155431 -0.0419551 0.0214237 
0.0164328 -0.0426105 0.0212234 0.0171884 -0.0432583 0.0209487 0.0176821 -0.0438924 0.0203521 
0.0180813 -0.0445216 0.0196391 0.0183114 -0.0451501 0.0184832 0.0184925 -0.0457784 0.0171989 
0.018637 -0.0464356 0.0154086 0.0187732 -0.0470992 0.0135045 0.0190204 -0.0478441 0.0110999 
0.019286 -0.0486024 0.00861198 0.0197962 -0.0495216 0.00568683 0.0203341 -0.0504592 0.00271199 
0.0212112 -0.0516683 -0.000608741 0.0221103 -0.0528951 -0.00395204 0.0233867 -0.0545407 -0.00755717 
-0.00315449 -0.0378638 0.0241602 -0.000486977 -0.0384003 0.0227007 0.00205379 -0.0389827 0.0216005 
0.00448245 -0.0396058 0.020818 0.00671234 -0.040263 0.020294 0.00879315 -0.0409457 0.0199638 
0.0106155 -0.0416513 0.019771 0.0122742 -0.0423715 0.0196652 0.0136354 -0.0431024 0.0195573 
0.0148385 -0.0438391 0.0194483 0.0157386 -0.0445747 0.0191882 0.0165049 -0.0453098 0.0188615 
0.0170069 -0.0460358 0.0182421 0.0174135 -0.0467585 0.0175171 0.0176417 -0.0474753 0.0163884 
0.0178181 -0.0481903 0.0151429 0.017938 -0.0489224 0.0134351 0.0180451 -0.0496582 0.0116233 
0.0182306 -0.0504607 0.00935218 0.0184293 -0.0512743 0.00700455 0.0188257 -0.0522349 0.00425276 
0.0192446 -0.0532122 0.00145503 0.0199405 -0.0544486 -0.00166443 0.0206545 -0.0557019 -0.00480489 
0.0216655 -0.0573604 -0.00818729 -0.00345405 -0.0401418 0.0226022 -0.000879636 -0.0404832 0.021128 
0.00157974 -0.0409085 0.0199947 0.00393735 -0.0414079 0.0191631 0.00610711 -0.0419757 0.0185776 
0.00813597 -0.0425947 0.0181769 0.00991729 -0.0432655 0.0179088 0.0115418 -0.0439692 0.0177245 
0.0128799 -0.044706 0.0175432 0.0140658 -0.0454604 0.0173634 0.0149582 -0.0462288 0.0170494 
0.015721 -0.0470033 0.0166762 0.0162246 -0.0477765 0.0160396 0.0166347 -0.0485493 0.0153078 
0.0168626 -0.0493175 0.0142118 0.0170379 -0.0500844 0.0130103 0.0171409 -0.0508643 0.0113906 
0.0172275 -0.0516472 0.00967685 0.0173623 -0.0524884 0.00754582 0.0175052 -0.0533393 0.00534526 
0.0178013 -0.0543251 0.0027754 0.0181147 -0.0553262 0.00016357 0.0186468 -0.0565693 -0.00274355 
0.0191932 -0.0578282 -0.00566994 0.0199652 -0.0594665 -0.00881675 -0.00369791 -0.0424094 0.0210081 
-0.0012273 -0.0425581 0.0195241 0.00114079 -0.0428269 0.0183618 0.00341819 -0.0432017 0.0174841 
0.00551964 -0.0436777 0.0168397 0.00748914 -0.0442296 0.0163702 0.00922317 -0.044861 0.0160282 
0.0108081 -0.0455428 0.0157668 0.0121187 -0.0462793 0.015513 0.0132836 -0.047045 0.0152633 
0.0141657 -0.0478395 0.0148962 0.0149231 -0.0486468 0.0144772 0.0154274 -0.0494611 0.0138241 
0.0158403 -0.0502779 0.0130863 0.0160684 -0.0510924 0.0120237 0.0162431 -0.0519063 0.0108671 
0.0163301 -0.0527303 0.00933628 0.0163974 -0.0535566 0.00772132 0.0164831 -0.0544339 0.00573128 
0.0165718 -0.0553197 0.00367873 0.0167693 -0.0563284 0.001292 0.0169792 -0.057351 -0.0011327 
0.01735 -0.058598 -0.00382594 0.0177312 -0.0598596 -0.0065367 0.0182678 -0.0614732 -0.00944611 
-0.00359395 -0.0444354 0.0192625 -0.00127943 -0.0444246 0.017803 0.000948184 -0.0445571 0.0166413 
0.00309893 -0.0448162 0.0157429 0.00509004 -0.0451984 0.0150615 0.00696142 -0.0456729 0.0145428 
0.00861452 -0.0462463 0.0141441 0.0101294 -0.0468823 0.0138214 0.0113874 -0.0475894 0.0135094 
0.0125089 -0.0483342 0.0132032 0.0133634 -0.0491206 0.0127945 0.0141002 -0.0499254 0.0123406 
0.0145945 -0.0507466 0.0116793 0.0150014 -0.0515737 0.0109431 0.0152252 -0.0524043 0.00991822 
0.0153959 -0.0532359 0.00880976 0.0154683 -0.0540794 0.00736797 0.0155185 -0.0549254 0.00585119 
0.0155624 -0.0558189 0.00399894 0.0156052 -0.0567202 0.00209078 0.0157188 -0.057734 -0.000117651 
0.0158404 -0.0587605 -0.00236021 0.0160739 -0.0599914 -0.00484467 0.0163147 -0.0612356 -0.00734491 
0.0166548 -0.0627984 -0.0100222 -0.00345908 -0.0464399 0.0175035 -0.00130529 -0.0462726 0.0160716 
0.000777481 -0.0462705 0.014913 0.00279744 -0.0464147 0.0139961 0.00467447 -0.0467029 0.0132797 
0.00644428 -0.0470991 0.0127136 0.00801347 -0.0476129 0.0122598 0.0094556 -0.0482011 0.0118771 
0.0106587 -0.0488761 0.0115082 0.0117349 -0.0495971 0.0111467 0.0125603 -0.0503724 0.0106974 
0.013275 -0.0511715 0.0102095 0.0137585 -0.0519966 0.0095408 0.0141586 -0.052831 0.00880683 
0.0143776 -0.053675 0.00782006 0.0145442 -0.0545219 0.00676011 0.014602 -0.0553825 0.00540733 
0.0146353 -0.0562463 0.00398866 0.0146381 -0.0571541 0.00227392 0.0146357 -0.0580693 0.000509837 
0.0146666 -0.0590865 -0.00152074 0.0147013 -0.0601153 -0.0035816 0.0147997 -0.0613283 -0.00585773 
0.0149023 -0.0625534 -0.00814791 0.0150493 -0.064063 -0.0105936 -0.00305709 -0.0474031 0.0157027 
-0.00109119 -0.0471645 0.0143248 0.000819887 -0.0470993 0.0131943 0.00268247 -0.0471877 0.0122825 
0.00442035 -0.0474283 0.0115532 0.00606469 -0.047783 0.0109607 0.00752809 -0.0482629 0.0104718 
0.00887691 -0.048822 0.0100484 0.0100069 -0.0494747 0.00964028 0.0110206 -0.050177 0.00924018 
0.0118019 -0.0509394 0.00876474 0.0124807 -0.0517282 0.00825607 0.0129419 -0.052548 0.00758937 
0.0133244 -0.0533789 0.00686561 0.0135312 -0.0542231 0.00591991 0.013687 -0.0550712 0.00490997 
0.0137282 -0.0559349 0.0036423 0.0137436 -0.0568021 0.00231663 0.0137104 -0.0577123 0.000729494 
0.0136691 -0.0586297 -0.000901219 0.013632 -0.0596441 -0.00276793 0.0135955 -0.0606696 -0.00466145 
0.013586 -0.0618685 -0.00674566 0.0135784 -0.0630787 -0.0088423 0.0135753 -0.0645551 -0.0110747 
-0.00264373 -0.048322 0.0139 -0.000866873 -0.0480157 0.0125774 0.000871363 -0.0478905 0.011476 
0.00257544 -0.0479257 0.0105702 0.0041731 -0.0481206 0.00982895 0.00569095 -0.0484354 0.00921107 
0.00704764 -0.0488824 0.00868789 0.00830226 -0.0494132 0.0082247 0.0093583 -0.050044 0.00777801 
0.0103088 -0.0507278 0.00734008 0.0110455 -0.0514773 0.00683906 0.0116878 -0.0522557 0.0063102 
0.0121261 -0.0530697 0.00564589 0.0124906 -0.0538965 0.00493268 0.0126848 -0.0547404 0.00402819 
0.0128296 -0.0555891 0.00306832 0.0128542 -0.0564552 0.00188558 0.0128516 -0.0573253 0.000652697 
0.0127826 -0.0582374 -0.000807256 0.0127025 -0.0591566 -0.00230505 0.0125982 -0.060168 -0.00400849 
0.0124911 -0.0611898 -0.00573529 0.0123749 -0.0623747 -0.00762826 0.0122582 -0.0635703 -0.00953207 
0.0121069 -0.0650144 -0.0115519 0.0383817 -0.0453176 -0.00558223 0.0333273 -0.0514872 -0.00866524 
0.0262083 -0.0562936 -0.0112621 0.0172629 -0.0598943 -0.013429 0.00694514 -0.0604003 -0.0145082 
-0.00440196 -0.0585853 -0.0147715 -0.0151731 -0.0527661 -0.0137858 -0.0255795 -0.044411 -0.012009 
-0.0330175 -0.0327498 -0.00954335 -0.0388784 -0.0193321 -0.00671173 -0.0397597 -0.00449019 -0.00400732 
-0.0384441 0.0109801 -0.00135904 -0.0314986 0.0245726 0.000626973 -0.02252 0.037487 0.00237383 
-0.0103869 0.0443185 0.003295 0.00265938 0.0493891 0.00397714 0.0140431 0.047903 0.0038407 
0.0250527 0.0449417 0.00352007 0.0315733 0.0394506 0.00242946 0.0373457 0.0335377 0.00121052 
0.03947 0.0283782 -0.000663479 0.0411797 0.0233043 -0.00261192 0.0413755 0.0199416 -0.00504188 
0.0414726 0.0166905 -0.00750325 0.0415947 0.0150237 -0.0102683 0.0330835 -0.0418474 0.000549253 
0.02878 -0.0468471 -0.00164518 0.0230216 -0.0505534 -0.0034092 0.015976 -0.0531157 -0.0047925 
0.00803426 -0.0531046 -0.00540102 -0.000579714 -0.0511637 -0.00542845 -0.00867118 -0.0459934 -0.00461714 
-0.0164317 -0.0387779 -0.00327464 -0.0219003 -0.0288719 -0.00146117 -0.0261512 -0.0175367 0.000602485 
-0.0266653 -0.00513404 0.00257388 -0.0255307 0.0077395 0.00450457 -0.0203653 0.0189562 0.00590699 
-0.0137444 0.0295745 0.00711863 -0.00486039 0.0355178 0.0075995 0.00467869 0.0401078 0.00786883 
0.0133458 0.0396196 0.00736423 0.0218168 0.0379888 0.0066855 0.0274072 0.0339468 0.00527528 
0.0325174 0.0295029 0.00374315 0.0350113 0.0252191 0.00159374 0.0372079 0.0209536 -0.000625821 
0.0381561 0.017894 -0.00330043 0.039023 0.014913 -0.00600473 0.039839 0.0132536 -0.00900338 
0.0288333 -0.0379383 0.00584252 0.0253069 -0.0419737 0.0042445 0.0207716 -0.0448313 0.00303229 
0.0153438 -0.0466469 0.00216135 0.0093377 -0.0463547 0.00187229 0.00289797 -0.0444816 0.00201965 
-0.00308908 -0.0400532 0.00275523 -0.00878944 -0.0340065 0.00386336 -0.0127559 -0.0258572 0.00528562 
-0.0158013 -0.0165909 0.00687476 -0.0161003 -0.00656246 0.00835742 -0.0151878 0.00380226 0.0097931 
-0.0113883 0.0128177 0.0107597 -0.00654629 0.0213458 0.0115568 -4.47797e-05 0.0263968 0.011676 
0.00693711 0.0304412 0.011599 0.0135032 0.0306601 0.0107749 0.0199758 0.0300184 0.0097827 
0.0246291 0.0272584 0.00807704 0.0289792 0.0241455 0.00625246 0.0315492 0.0208012 0.00382783 
0.0339169 0.0174306 0.00133501 0.0353823 0.0148091 -0.00160035 0.0367887 0.0122364 -0.00456458 
0.0381906 0.0106918 -0.00782204 0.0252577 -0.0343144 0.0103702 0.0224745 -0.037643 0.00918622 
0.019013 -0.0399084 0.00836115 0.0149515 -0.0412333 0.00785356 0.0105297 -0.0408319 0.0077999 
0.00583747 -0.039136 0.00808668 0.00151769 -0.0354245 0.00879231 -0.00256623 -0.0304366 0.00976323 
-0.00536963 -0.0238176 0.0109344 -0.00749276 -0.0163321 0.0122119 -0.00763973 -0.0083025 0.0133592 
-0.00691486 -3.27719e-05 0.014449 -0.00415562 0.00716836 0.0150954 -0.000661742 0.0139836 0.0155815 
0.00404095 0.0182355 0.0154138 0.00909357 0.0217454 0.0150567 0.014022 0.0223891 0.0139605 
0.0189224 0.0223879 0.0126979 0.0227496 0.0205749 0.0107243 0.0263979 0.01846 0.0086321 
0.0289124 0.0158899 0.00594365 0.0312981 0.0132682 0.00318744 0.0331074 0.0110567 -8.23133e-06 
0.0348791 0.00887209 -0.00323257 0.0367458 0.00745808 -0.00675447 0.0222316 -0.0309229 0.014274 
0.020164 -0.0337545 0.0133555 0.0176548 -0.0356368 0.0127834 0.0147549 -0.0366794 0.0125178 
0.0116308 -0.0363092 0.012631 0.00833844 -0.0348794 0.0130284 0.00532974 -0.0318645 0.0137414 
0.00250069 -0.0278455 0.0146542 0.000584128 -0.0225725 0.0156884 -0.000847683 -0.0166331 0.016787 
-0.000893774 -0.0102965 0.0177239 -0.000328515 -0.00378451 0.0185895 0.00165578 0.00191766 0.0190098 
0.00415251 0.0073274 0.0192694 0.00753196 0.0108562 0.0188755 0.0111669 0.0138406 0.0182926 
0.0148351 0.014679 0.0169628 0.0185108 0.0150345 0.0154649 0.0216022 0.0138953 0.0132456 
0.0245962 0.012507 0.0109061 0.0269481 0.0105767 0.0079631 0.029227 0.00858473 0.00495155 
0.0312392 0.00676058 0.00149592 0.033234 0.00494737 -0.00198868 0.0354668 0.00367699 -0.00577961 
0.0194889 -0.0281718 0.0175243 0.0181024 -0.0306884 0.016765 0.0164328 -0.0323534 0.016352 
0.0145127 -0.0332652 0.0162453 0.0124471 -0.0330098 0.0164748 0.0102724 -0.0318791 0.0169563 
0.00829334 -0.0294906 0.0176893 0.00643825 -0.0263055 0.0185817 0.00520497 -0.022147 0.0195423 
0.00430203 -0.0174714 0.0205391 0.0043392 -0.0124957 0.0213466 0.00479114 -0.0073875 0.0220708 
0.00620865 -0.00288475 0.0223379 0.00797484 0.00139938 0.0224399 0.0103767 0.00430038 0.0218766 
0.0129625 0.00680102 0.0211206 0.0156694 0.00768698 0.0196001 0.0184035 0.00820964 0.0179075 
0.0208845 0.0075087 0.0154755 0.0233232 0.00660381 0.0129201 0.0254815 0.00513873 0.00974827 
0.0276078 0.00360998 0.00650633 0.0297232 0.00208766 0.00281169 0.0318378 0.000565757 -0.000912494 
0.0343317 -0.000598674 -0.00495341 0.0169417 -0.0258623 0.0203238 0.0162124 -0.0281894 0.0196504 
0.0153047 -0.0297515 0.0193318 0.014239 -0.030637 0.019327 0.0130671 -0.0305541 0.0196377 
0.0118153 -0.029745 0.020185 0.0106718 -0.0279347 0.0209469 0.00959696 -0.0254903 0.0218447 
0.00890659 -0.0222869 0.0227753 0.00842047 -0.0186803 0.0237234 0.00852877 -0.0148364 0.0244576 
0.00889931 -0.0108879 0.0250974 0.00989359 -0.00737801 0.0252615 0.0111131 -0.00402648 0.0252538 
0.0127757 -0.00168764 0.0245599 0.0145665 0.000358054 0.0236674 0.0165182 0.00119023 0.0219857 
0.0185061 0.00174936 0.0201264 0.020463 0.00132415 0.0175043 0.0224148 0.000734891 0.0147549 
0.024358 -0.000385243 0.0113719 0.0263002 -0.00156571 0.00791677 0.0284501 -0.0028451 0.00399754 
0.0306134 -0.00413096 4.80373e-05 0.0332959 -0.00521543 -0.00422971 0.014461 -0.0243565 0.0225401 
0.0143565 -0.0265752 0.0218883 0.0141269 -0.0281051 0.0216056 0.0137867 -0.0290258 0.0216494 
0.0133481 -0.0291337 0.022003 0.0128357 -0.028632 0.0225889 0.012351 -0.0273213 0.0233709 
0.0118839 -0.0254981 0.0242771 0.0116169 -0.0230717 0.0251955 0.0114562 -0.0203247 0.0261203 
0.0116331 -0.0173814 0.0268135 0.0119591 -0.0143515 0.0274046 0.0126581 -0.0116357 0.0275031 
0.0134918 -0.00903338 0.0274237 0.0146212 -0.00717701 0.0266377 0.0158362 -0.00553657 0.0256471 
0.0172237 -0.00481583 0.0238439 0.0186502 -0.00430201 0.0218578 0.0201878 -0.00458053 0.0190867 
0.021744 -0.00499109 0.0161849 0.0234803 -0.00588723 0.0126331 0.025237 -0.00683854 0.00900748 
0.0273634 -0.00795487 0.00490708 0.029514 -0.00908197 0.000775715 0.0322932 -0.0101349 -0.00369357 
0.012019 -0.0233174 0.0244179 0.0125204 -0.0254747 0.0237501 0.0129203 -0.0270135 0.0234693 
0.0132306 -0.0280053 0.0235309 0.0134324 -0.0283145 0.0239052 0.0135528 -0.0281119 0.0245139 
0.0136242 -0.0272551 0.025311 0.0136646 -0.0259839 0.0262274 0.0137516 -0.024231 0.0271436 
0.0138632 -0.0222221 0.0280599 0.0141074 -0.020045 0.0287311 0.0144101 -0.0177938 0.0292941 
0.0148881 -0.0157567 0.0293487 0.0154294 -0.013797 0.0292197 0.0161452 -0.0123768 0.0283639 
0.0169117 -0.0111128 0.0272977 0.0178461 -0.010537 0.0253958 0.0188183 -0.010116 0.023306 
0.0199975 -0.0103227 0.02041 0.0212113 -0.0106341 0.0173797 0.0227452 -0.0113765 0.0136839 
0.0243156 -0.0121678 0.00991254 0.0263851 -0.0131674 0.00565618 0.0284872 -0.0141806 0.00136819 
0.0313097 -0.0152301 -0.00326633 0.00962721 -0.0231187 0.0257517 0.010678 -0.0252147 0.0250275 
0.011625 -0.0267621 0.0247091 0.0124804 -0.0278242 0.0247496 0.013204 -0.0283109 0.0251107 
0.0138287 -0.028366 0.025712 0.0143379 -0.027886 0.0265013 0.0147738 -0.027067 0.0274095 
0.0151397 -0.0258563 0.0283131 0.0154683 -0.0244376 0.0292142 0.0157802 -0.0228704 0.0298639 
0.0160848 -0.0212378 0.0304026 0.0164217 -0.0197467 0.0304247 0.0167702 -0.0183067 0.0302603 
0.0172011 -0.0172572 0.0293584 0.017656 -0.0163207 0.0282429 0.0182633 -0.0159018 0.0262796 
0.0189049 -0.0155993 0.0241256 0.0198059 -0.0157957 0.0211539 0.0207501 -0.0160752 0.0180459 
0.0220994 -0.0167343 0.0142638 0.0234948 -0.0174366 0.010405 0.0254692 -0.018374 0.00605542 
0.0274813 -0.0193268 0.0016738 0.0302647 -0.0204067 -0.00305894 0.00725971 -0.0233275 0.0268218 
0.00883246 -0.0253623 0.0260215 0.0102867 -0.0269181 0.0256463 0.011636 -0.0280502 0.025647 
0.0128239 -0.0287027 0.0259784 0.0138908 -0.0289956 0.0265577 0.0147802 -0.0288549 0.0273281 
0.0155574 -0.0284397 0.0282194 0.0161658 -0.0277077 0.029105 0.0166846 -0.0268073 0.0299877 
0.0170644 -0.0257742 0.0306162 0.0173831 -0.0246826 0.0311325 0.0176175 -0.0236731 0.0311276 
0.0178216 -0.0226932 0.0309346 0.01803 -0.0219826 0.0299981 0.0182397 -0.02135 0.0288463 
0.0185811 -0.0210938 0.0268395 0.0189521 -0.0209223 0.0246403 0.0196136 -0.0211381 0.0216168 
0.0203236 -0.0214185 0.0184558 0.0214969 -0.0220285 0.0146152 0.0227229 -0.0226759 0.0106975 
0.0245835 -0.0235776 0.00628503 0.0264855 -0.0244959 0.00184033 0.02919 -0.0256228 -0.00295815 
0.00504843 -0.0242915 0.0273753 0.00705221 -0.0262238 0.0264769 0.00891684 -0.0277498 0.0260197 
0.0106584 -0.0289164 0.0259526 0.0122086 -0.0296878 0.0262251 0.0136154 -0.0301628 0.0267524 
0.0147956 -0.0302869 0.0274749 0.0158323 -0.0301886 0.0283209 0.0166292 -0.0298324 0.0291635 
0.0172988 -0.0293391 0.0300044 0.017745 -0.0287267 0.0305943 0.0180927 -0.0280619 0.0310734 
0.0182755 -0.0274374 0.0310373 0.0183989 -0.0268275 0.0308151 0.0184687 -0.0263997 0.0298576 