# vtk DataFile Version 2.0
vtk output
ASCII
DATASET RECTILINEAR_GRID
DIMENSIONS 25 25 25
X_COORDINATES 25 float
-10 -9.79167 -9.58333 -9.375 -9.16667 -8.95833 -8.75 -8.54167 -8.33333 
-8.125 -7.91667 -7.70833 -7.5 -7.29167 -7.08333 -6.875 -6.66667 -6.45833 
-6.25 -6.04167 -5.83333 -5.625 -5.41667 -5.20833 -5 
Y_COORDINATES 25 float
5 5.20833 5.41667 5.625 5.83333 6.04167 6.25 6.45833 6.66667 
6.875 7.08333 7.29167 7.5 7.70833 7.91667 8.125 8.33333 8.54167 
8.75 8.95833 9.16667 9.375 9.58333 9.79167 10 
Z_COORDINATES 25 float
5 5.20833 5.41667 5.625 5.83333 6.04167 6.25 6.45833 6.66667 
6.875 7.08333 7.29167 7.5 7.70833 7.91667 8.125 8.33333 8.54167 
8.75 8.95833 9.16667 9.375 9.58333 9.79167 10 
POINT_DATA 15625
VECTORS grad float
0.0429124 0.0211579 0.0123881 0.0417117 0.0220882 0.0137631 0.0404571 0.0229905 0.0151285 
0.0379352 0.0232338 0.0162659 0.0354076 0.0234001 0.0173759 0.032816 0.0226999 0.0181779 
0.0302714 0.0218568 0.0189321 0.0280636 0.01999 0.0193438 0.0260293 0.0179211 0.019691 
0.0248836 0.0148168 0.0197074 0.0240955 0.011537 0.0196481 0.0247015 0.00757197 0.0192942 
0.0257426 0.00364201 0.0188556 0.0281253 -0.000179925 0.0181561 0.0307334 -0.00377954 0.0173627 
0.0339052 -0.00682334 0.0163351 0.0369651 -0.00986853 0.0152029 0.0397943 -0.0129166 0.0138549 
0.0423111 -0.0163731 0.0123741 0.0442901 -0.0205331 0.0106649 0.0457595 -0.0253418 0.008774 
0.0464903 -0.0310913 0.00661984 0.0462093 -0.0374619 0.00426109 0.0446866 -0.0445946 0.00165125 
0.0413493 -0.0517999 -0.00104292 0.0438989 0.0218909 0.0159415 0.042516 0.0229639 0.0175278 
0.0410688 0.0240071 0.019102 0.0381115 0.0243523 0.0203911 0.0351375 0.0246142 0.0216459 
0.0319754 0.0239384 0.0225159 0.0288494 0.0231044 0.0233269 0.0259821 0.0211363 0.0237156 
0.023301 0.0189357 0.0240274 0.0215738 0.0155437 0.0239445 0.0202858 0.0119401 0.0237764 
0.0207102 0.00751103 0.0232758 0.0216908 0.00314624 0.0226851 0.0243862 -0.00102027 0.0218163 
0.0272995 -0.00484358 0.0208572 0.0307577 -0.0078089 0.0196726 0.033932 -0.0107061 0.0184112 
0.0365206 -0.0134629 0.0169913 0.0386481 -0.0166018 0.0154996 0.0399813 -0.0203987 0.0138843 
0.0408 -0.0247477 0.0121836 0.0408726 -0.029897 0.0103589 0.0401203 -0.0354649 0.00845484 
0.0383553 -0.0415468 0.00645347 0.0352443 -0.0474843 0.00447327 0.0450227 0.0226164 0.019845 
0.0434464 0.0238644 0.0216798 0.0417946 0.0250815 0.0234997 0.0383691 0.0255732 0.0249689 
0.0349137 0.0259766 0.0263959 0.0311224 0.025387 0.0273472 0.027352 0.0246267 0.0282264 
0.0237316 0.0226426 0.028588 0.0203081 0.0203981 0.0288578 0.0178933 0.0168188 0.0286571 
0.0160198 0.0129864 0.0283597 0.0162578 0.00816693 0.0276854 0.0172174 0.003431 0.0269127 
0.0204023 -0.00104733 0.0258371 0.0238045 -0.00506313 0.0246704 0.0277499 -0.00792262 0.0232763 
0.0312011 -0.010656 0.0218303 0.0336331 -0.0131293 0.0202773 0.0354497 -0.0159653 0.0187085 
0.0362066 -0.0194261 0.0171126 0.0364817 -0.0233456 0.015511 0.0360584 -0.0279302 0.0139013 
0.0350157 -0.0327661 0.012303 0.0332131 -0.0379104 0.0107187 0.0304551 -0.0427776 0.00921963 
0.0463699 0.0231681 0.0241605 0.0445971 0.0246172 0.026298 0.0427371 0.0260351 0.0284173 
0.0388314 0.0267196 0.030109 0.0348816 0.0273138 0.0317484 0.0304377 0.0268928 0.0327998 
0.0259969 0.0262976 0.033762 0.0215779 0.024454 0.0340851 0.0173597 0.0223437 0.0342973 
0.0141704 0.0188666 0.0339415 0.0116295 0.015119 0.0334748 0.0116179 0.0103163 0.0325759 
0.0125272 0.00557351 0.0315684 0.016276 0.00101576 0.0302264 0.0202494 -0.00308562 0.0287888 
0.0247843 -0.00604604 0.0271123 0.0285919 -0.00887411 0.0254082 0.0308998 -0.0114293 0.0236474 
0.0324544 -0.0142913 0.0219247 0.0327119 -0.0176818 0.020268 0.0325498 -0.021409 0.0186758 
0.0317795 -0.0256244 0.0171772 0.0305847 -0.0299401 0.015764 0.0288689 -0.034379 0.0144555 
0.0265107 -0.0384506 0.0132826 0.0478992 0.0235781 0.0288115 0.0459272 0.0252497 0.0312959 
0.0438562 0.0268904 0.0337585 0.0394604 0.0278052 0.0357071 0.0350059 0.0286303 0.0375919 
0.0298902 0.0284451 0.0387585 0.0247576 0.0280896 0.039816 0.0195031 0.026514 0.0400913 
0.0144477 0.0246832 0.0402333 0.0104129 0.0215442 0.0396918 0.00713784 0.0181367 0.0390231 
0.00682535 0.0136824 0.0378582 0.00766042 0.00922974 0.0365729 0.0120338 0.00478191 0.034916 
0.0166455 0.000682086 0.0331558 0.021853 -0.00254772 0.0311375 0.0260818 -0.00568117 0.0291155 
0.0282922 -0.00861594 0.0270859 0.0296248 -0.0117718 0.0251469 0.0294453 -0.0153086 0.023364 
0.0289327 -0.0190368 0.021708 0.0279369 -0.0230425 0.0202361 0.0267024 -0.0270107 0.0189096 
0.0251749 -0.0309331 0.0177616 0.0232548 -0.034433 0.0167887 0.0497044 0.0235482 0.0338715 
0.0475413 0.0254401 0.0367728 0.045268 0.0273023 0.0396479 0.0404029 0.0284642 0.0419102 
0.0354664 0.0295393 0.0440943 0.0297265 0.0296375 0.0454004 0.0239571 0.0295773 0.0465718 
0.0179764 0.0283819 0.0467785 0.0121983 0.0269645 0.0468217 0.00745918 0.0244095 0.0460279 
0.00354826 0.0216215 0.0450838 0.00286754 0.017925 0.0435535 0.0034684 0.0141361 0.0418914 
0.00802078 0.010062 0.0398228 0.0128384 0.00608694 0.0376531 0.018319 0.00235927 0.0352303 
0.0227124 -0.00135194 0.0328316 0.0248631 -0.00502923 0.0304828 0.0260952 -0.00879466 0.028273 
0.0257452 -0.0127119 0.0263027 0.0251343 -0.0166481 0.024515 0.0241452 -0.0206118 0.0229919 
0.0230503 -0.0244084 0.021667 0.0218256 -0.0279999 0.0205855 0.0203835 -0.0311292 0.0197157 
0.0516999 0.0232148 0.0392135 0.0493514 0.0253258 0.0425799 0.0468816 0.0274086 0.0459155 
0.0415616 0.028829 0.0485305 0.036159 0.0301672 0.0510513 0.0298275 0.0305818 0.0525134 
0.0234592 0.0308553 0.0538117 0.0168277 0.0301173 0.0539352 0.010406 0.0292057 0.0538602 
0.00505962 0.0274044 0.052768 0.000580798 0.0254285 0.0514978 -0.000514614 0.0227721 0.0495335 
-0.000258302 0.0199046 0.0474266 0.0041658 0.0163863 0.0448796 0.00889111 0.0126209 0.0422403 
0.0143694 0.00823776 0.0393698 0.0187502 0.00376095 0.036554 0.0208674 -0.000909141 0.033851 
0.0220831 -0.0055018 0.0313329 0.021746 -0.00996111 0.029133 0.0212109 -0.0142482 0.0271665 
0.0203885 -0.0182856 0.0255387 0.0195569 -0.0220316 0.0241568 0.0187141 -0.0254201 0.0230768 
0.0177775 -0.0283177 0.0222433 0.0539433 0.022091 0.0448472 0.0514257 0.0243678 0.0487545 
0.0487767 0.0266183 0.0526261 0.0430411 0.0282538 0.055659 0.0372148 0.0298123 0.0585789 
0.0303668 0.0305043 0.0602261 0.0234853 0.0310701 0.0616734 0.0163627 0.0307321 0.0616886 
0.00946657 0.0302576 0.0614612 0.00373093 0.0290837 0.0599907 -0.00115322 0.0277743 0.0583069 
-0.00271651 0.0259363 0.0557908 -0.00299097 0.0237962 0.0531239 0.000708466 0.020725 0.0499915 
0.00475759 0.0171589 0.0467911 0.00968091 0.0123556 0.0434206 0.0136872 0.00736979 0.040142 
0.0158021 0.00200737 0.0370529 0.0171302 -0.00316662 0.0341906 0.0171031 -0.00801611 0.0317191 
0.0169105 -0.0125559 0.0295276 0.016478 -0.0166467 0.0277419 0.0160731 -0.0203598 0.0262464 
0.015702 -0.0236093 0.025107 0.0152999 -0.0263569 0.0242481 0.0563306 0.0205083 0.0506501 
0.0536534 0.0229198 0.0551425 0.0508352 0.0253075 0.0595939 0.0447071 0.027133 0.0630828 
0.0384815 0.0288867 0.0664379 0.0311608 0.0298334 0.0682869 0.0238156 0.0306677 0.0698963 
0.0162947 0.0306962 0.0697886 0.00902242 0.0306189 0.069389 0.00302403 0.0299992 0.0674938 
-0.00217104 0.0292716 0.0653454 -0.0042331 0.0281233 0.0622092 -0.00514646 0.0265982 0.0589153 
-0.00251798 0.0239108 0.0551353 0.000515899 0.0205379 0.0513208 0.00456328 0.0154512 0.04742 
0.00798487 0.0101053 0.0436521 0.0101158 0.00422504 0.0401581 0.0116311 -0.00138752 0.036931 
0.0120862 -0.00653902 0.0341637 0.0123911 -0.0112746 0.0317199 0.0124782 -0.0154071 0.0297456 
0.0125947 -0.0190973 0.0281035 0.0127475 -0.0222449 0.0268693 0.0128969 -0.0248902 0.0259494 
0.05881 0.0177792 0.056433 0.0559928 0.020209 0.061563 0.053026 0.0226175 0.0666468 
0.0465439 0.0245218 0.070643 0.039958 0.0263594 0.0744825 0.0322034 0.0274463 0.0765583 
0.0244326 0.0284286 0.0783495 0.0165451 0.0286604 0.0781006 0.00892074 0.0287939 0.0775048 
0.00264525 0.0284243 0.0751309 -0.002884 0.0279427 0.0724619 -0.00550288 0.0270251 0.0686421 
-0.00710401 0.0257165 0.0646599 -0.00556708 0.0232024 0.0601773 -0.00356855 0.0199961 0.055696 
-0.000416065 0.0150588 0.0512175 0.00239309 0.00984345 0.046917 0.00449413 0.00405444 0.0429838 
0.00616942 -0.00147168 0.0393603 0.00711148 -0.00654503 0.03627 0.00793067 -0.0111853 0.0335461 
0.00857169 -0.0151974 0.0313536 0.00922944 -0.0187584 0.029533 0.00990771 -0.0217657 0.0281689 
0.010582 -0.0242955 0.0271511 0.0613339 0.0144943 0.062206 0.0583864 0.0168859 0.0679993 
0.0552809 0.0192587 0.0737409 0.0484637 0.0211879 0.0782694 0.0415361 0.0230553 0.0826172 
0.0333666 0.0242271 0.0849319 0.0251886 0.025299 0.0869143 0.0169498 0.0256548 0.0865155 
0.0089851 0.0259089 0.0857119 0.00242556 0.0256418 0.0828331 -0.00344916 0.0252436 0.0796164 
-0.006653 0.0243339 0.075082 -0.00896559 0.0230488 0.0703817 -0.00853017 0.0206059 0.06517 
-0.00757676 0.0175531 0.0599962 -0.00532836 0.0129753 0.0549169 -0.00314509 0.00812831 0.050063 
-0.00109614 0.00272589 0.045674 0.000725906 -0.00245924 0.0416386 0.00215717 -0.00727015 0.0382123 
0.0034988 -0.0116739 0.0351948 0.00471046 -0.0154872 0.0327698 0.00591893 -0.0188673 0.0307552 
0.00712347 -0.0217158 0.029244 0.00830993 -0.0241235 0.0281104 0.0636532 0.00985591 0.0674053 
0.0605995 0.0120428 0.0738394 0.0573805 0.0142138 0.0802171 0.050275 0.0160121 0.0852696 
0.0430513 0.0177556 0.090118 0.0344962 0.0188813 0.0926699 0.0259344 0.0199143 0.094842 
0.0173234 0.0202829 0.0942921 0.00898981 0.0205477 0.0932804 0.00207855 0.0202811 0.0899018 
-0.00418748 0.0198747 0.0861461 -0.00793714 0.0189232 0.0809193 -0.0108648 0.0176422 0.0755248 
-0.011258 0.0153451 0.0696131 -0.0110847 0.0125544 0.0637723 -0.00949498 0.0085299 0.0581087 
-0.00777908 0.00427103 0.0527157 -0.00580292 -0.00047128 0.047881 -0.00389829 -0.00505375 0.0434433 
-0.00211687 -0.00936091 0.0396894 -0.000380207 -0.0133252 0.0363833 0.00129156 -0.0167922 0.0337266 
0.00295213 -0.019879 0.0315138 0.00459896 -0.0224989 0.0298458 0.0062119 -0.024734 0.0285822 
0.0658907 0.0046761 0.0723751 0.0627406 0.00659156 0.079441 0.059418 0.00849436 0.086446 
0.052043 0.0100996 0.0920194 0.0445411 0.0116576 0.0973654 0.0356124 0.0126848 0.100154 
0.026676 0.0136276 0.102515 0.0176844 0.0139644 0.101813 0.00897066 0.0141961 0.100594 
0.00168062 0.0138891 0.0967173 -0.00499508 0.013438 0.0924259 -0.00927489 0.0124247 0.0865156 
-0.0127791 0.01114 0.0804363 -0.0138918 0.00901844 0.0738364 -0.0143925 0.0065334 0.0673388 
-0.0133633 0.00313968 0.0610974 -0.0120514 -0.000443124 0.0551711 -0.0101563 -0.00441591 0.0498947 
-0.00819476 -0.00829103 0.0450585 -0.0061188 -0.011998 0.0409802 -0.00403806 -0.0154416 0.0373877 
-0.0019504 -0.0185034 0.0344996 0.000122826 -0.0212518 0.0320871 0.00217834 -0.0236153 0.0302584 
0.00418351 -0.0256576 0.0288589 0.0675415 -0.00173136 0.0760485 0.0643284 -0.000255415 0.0835968 
0.0609377 0.00121175 0.0910808 0.0533742 0.00247244 0.0970556 0.0456762 0.00369793 0.102785 
0.0364645 0.00452743 0.105753 0.0272412 0.00529075 0.108257 0.0179351 0.0055798 0.107428 
0.00890423 0.00578039 0.106037 0.00128426 0.00552757 0.101762 -0.00573743 0.005149 0.097043 
-0.0104258 0.00427999 0.090594 -0.0143572 0.00319519 0.0839762 -0.0159549 0.00144505 0.0768377 
-0.0169082 -0.000578314 0.0698257 -0.0162504 -0.0032847 0.0631299 -0.0152155 -0.00614717 0.056783 
-0.0134027 -0.00933157 0.0511557 -0.011432 -0.0124663 0.0460012 -0.00918963 -0.0155155 0.041661 
-0.00689892 -0.0183777 0.0378344 -0.00453815 -0.0209687 0.0347525 -0.00218549 -0.02332 0.0321685 
0.000157211 -0.0253774 0.0301956 0.00244058 -0.0271829 0.0286689 0.069002 -0.00853699 0.0793014 
0.0657368 -0.0075551 0.0872835 0.0622895 -0.00657788 0.0951985 0.0545638 -0.00571078 0.101536 
0.0466961 -0.00486552 0.107612 0.0372309 -0.004266 0.110742 0.0277493 -0.00371098 0.113372 
0.01815 -0.00347486 0.112424 0.00882248 -0.00330473 0.110873 0.000888393 -0.0034728 0.106231 
-0.00645862 -0.00374083 0.101121 -0.011516 -0.00439867 0.0941802 -0.0158263 -0.0052175 0.0870712 
-0.0178329 -0.00653273 0.0794428 -0.0191669 -0.0080438 0.0719624 -0.0188193 -0.0100445 0.0648523 
-0.0180202 -0.0121723 0.0581213 -0.01629 -0.0145622 0.0521725 -0.0143257 -0.0169458 0.0467257 
-0.0119585 -0.0193187 0.0421438 -0.0095013 -0.0215797 0.0381001 -0.00691373 -0.0236784 0.0348367 
-0.00432485 -0.0256138 0.0320904 -0.00173436 -0.0273488 0.0299787 0.000790227 -0.0289035 0.0283274 
0.0695401 -0.0160156 0.0806153 0.0662675 -0.0156258 0.0887529 0.0628115 -0.0152362 0.0968223 
0.0550483 -0.0148479 0.103285 0.0471399 -0.0144647 0.10948 0.0375966 -0.0141387 0.112654 
0.0280328 -0.0138269 0.115315 0.0183212 -0.0136171 0.114298 0.00887447 -0.0134369 0.112662 
0.000785011 -0.013408 0.107852 -0.00673027 -0.0134418 0.102563 -0.0120062 -0.0137198 0.0954039 
-0.0165458 -0.0141148 0.0880759 -0.018815 -0.0148702 0.0802279 -0.0204003 -0.0157777 0.072536 
-0.0202759 -0.0170652 0.0652343 -0.0196613 -0.0184695 0.0583228 -0.0180358 -0.0201146 0.0522162 
-0.0161307 -0.0217897 0.046622 -0.0137442 -0.0235166 0.0419102 -0.0112366 -0.0251947 0.0377444 
-0.00855342 -0.026802 0.0343703 -0.00585599 -0.0283151 0.0315187 -0.00314102 -0.0297126 0.0293084 
-0.000490908 -0.0309968 0.0275616 0.0698417 -0.0236667 0.081432 0.0665731 -0.0238943 0.0896538 
0.0631207 -0.0241172 0.0978065 0.0553521 -0.0242295 0.104335 0.0474359 -0.0243293 0.11059 
0.0378596 -0.0242881 0.113778 0.0282587 -0.0242286 0.116445 0.0184813 -0.0240382 0.115372 
0.00896075 -0.0238374 0.11367 0.000756624 -0.023583 0.108743 -0.00688665 -0.0233508 0.10333 
-0.0123426 -0.0232057 0.0960217 -0.0170732 -0.0231363 0.0885445 -0.0195673 -0.0233 0.0805464 
-0.0213707 -0.0235805 0.0727088 -0.0214473 -0.0241529 0.0652727 -0.0210041 -0.0248365 0.0582329 
-0.019489 -0.0257494 0.0520105 -0.0176566 -0.026727 0.0463058 -0.0152778 -0.0278158 0.0414928 
-0.0127495 -0.0289157 0.0372294 -0.0100044 -0.0300318 0.0337628 -0.00723117 -0.0311209 0.0308206 
-0.00442332 -0.032177 0.0285218 -0.00167737 -0.0331856 0.026687 0.069089 -0.0311227 0.0800692 
0.065875 -0.0319424 0.0880506 0.0624809 -0.0327527 0.0959639 0.054854 -0.0333424 0.102277 
0.0470831 -0.0339023 0.108325 0.0376918 -0.0341262 0.111389 0.0282743 -0.0342994 0.113947 
0.0186679 -0.0341087 0.112879 0.00930488 -0.0338663 0.1112 0.00118951 -0.0333593 0.10639 
-0.00638962 -0.0328349 0.101106 -0.0118774 -0.0322423 0.0939692 -0.0166651 -0.0316927 0.0866621 
-0.0192937 -0.031276 0.0788302 -0.0212432 -0.0309564 0.0711477 -0.0214946 -0.0308797 0.0638389 
-0.0212187 -0.0309172 0.0569107 -0.0198551 -0.0311901 0.0507673 -0.0181547 -0.0315564 0.0451249 
-0.0158743 -0.0320839 0.0403456 -0.0134239 -0.0326698 0.0361005 -0.0107273 -0.0333403 0.0326301 
-0.00798759 -0.0340386 0.0296706 -0.00519507 -0.0347712 0.0273381 -0.00245574 -0.0355113 0.0254582 
0.0681306 -0.0385408 0.078281 0.0649812 -0.0399477 0.0859587 0.0616559 -0.0413405 0.0935697 
0.0541995 -0.0424029 0.0996139 0.0466036 -0.0434183 0.105402 0.03744 -0.0439037 0.108314 
0.0282488 -0.0443058 0.110741 0.0188596 -0.0441107 0.109689 0.00969931 -0.0438226 0.108051 
0.0017124 -0.0430579 0.103405 -0.00576509 -0.0422361 0.0982988 -0.0112559 -0.0411912 0.0913957 
-0.0160744 -0.0401585 0.084321 -0.0188199 -0.0391635 0.0767169 -0.0209014 -0.038249 0.0692482 
-0.0213227 -0.0375362 0.0621179 -0.0212132 -0.0369421 0.0553481 -0.0200092 -0.0365928 0.0493215 
-0.0184524 -0.0363649 0.0437752 -0.0162879 -0.036346 0.039056 -0.0139347 -0.0364303 0.0348519 
-0.0113081 -0.0366642 0.031395 -0.00862328 -0.0369782 0.0284325 -0.00586719 -0.0373907 0.0260769 
-0.00315449 -0.0378638 0.0241602 0.0662589 -0.0448909 0.0746264 0.0632213 -0.0467433 0.0817514 
0.0600156 -0.0485778 0.0888128 0.052861 -0.0499919 0.0943808 0.0455765 -0.0513459 0.0997113 
0.0368305 -0.0520242 0.102371 0.0280577 -0.0525954 0.104585 0.0190929 -0.0523978 0.103596 
0.010338 -0.0520762 0.102065 0.00265933 -0.0511189 0.0977577 -0.00454776 -0.0500735 0.0930181 
-0.00991553 -0.0486844 0.0865937 -0.0146535 -0.0472832 0.0799977 -0.0174494 -0.0458445 0.0728726 
-0.0196122 -0.0444735 0.0658591 -0.0201921 -0.0432719 0.0591244 -0.0202532 -0.0421913 0.0527142 
-0.0192445 -0.04136 0.0469734 -0.0178787 -0.0406682 0.041675 -0.015898 -0.0402166 0.0371385 
-0.013716 -0.0398985 0.0330828 -0.0112421 -0.0397742 0.0297243 -0.00869553 -0.0397673 0.0268312 
-0.00605976 -0.0399046 0.0245091 -0.00345405 -0.0401418 0.0226022 0.0642598 -0.051092 0.0707113 
0.0613405 -0.0533702 0.0772489 0.0582614 -0.0556268 0.0837262 0.0514271 -0.0573755 0.088789 
0.044473 -0.0590518 0.093634 0.036171 -0.0599136 0.0960286 0.0278434 -0.0606454 0.0980172 
0.019332 -0.0604456 0.0970972 0.0110108 -0.0600922 0.0956833 0.00366541 -0.0589514 0.0917385 
-0.00324771 -0.0576928 0.0873923 -0.00847488 -0.0559745 0.0814807 -0.0131167 -0.0542207 0.0753978 
-0.0159537 -0.0523571 0.0687868 -0.0181908 -0.0505489 0.0622621 -0.0189277 -0.0488791 0.0559532 
-0.01916 -0.0473322 0.0499308 -0.0183515 -0.0460385 0.0444994 -0.0171834 -0.044901 0.0394701 
-0.015396 -0.0440325 0.0351334 -0.0133954 -0.043326 0.031241 -0.0110859 -0.0428543 0.0279929 
-0.00868915 -0.0425354 0.0251791 -0.00618542 -0.0424037 0.0228985 -0.00369791 -0.0424094 0.0210081 
0.0616842 -0.0556587 0.0656438 0.0589176 -0.0581673 0.0714924 0.0560015 -0.0606519 0.0772853 
0.0495724 -0.0625738 0.0817708 0.0430357 -0.0644171 0.0860615 0.0352884 -0.0653771 0.0881608 
0.0275178 -0.0661967 0.089901 0.0195798 -0.0660101 0.0890676 0.0118112 -0.0656555 0.0877958 
0.0049112 -0.0644394 0.0842768 -0.00160038 -0.0630883 0.0803944 -0.00659716 -0.0612102 0.0750942 
-0.0110609 -0.0592792 0.0696274 -0.0138809 -0.0571852 0.0636471 -0.0161442 -0.0551334 0.0577275 
-0.0170154 -0.0531869 0.0519601 -0.0174067 -0.0513578 0.0464366 -0.0168082 -0.049771 0.0414161 
-0.0158567 -0.0483446 0.0367505 -0.0142973 -0.0471946 0.0326961 -0.0125189 -0.0462197 0.0290415 
-0.0104229 -0.045499 0.0259668 -0.00822749 -0.0449503 0.0232882 -0.00590999 -0.0446129 0.0210959 
-0.00359395 -0.0444354 0.0192625 0.0590573 -0.0600802 0.0604739 0.0564464 -0.0628017 0.0656244 
0.0536965 -0.0654971 0.070724 0.0476803 -0.0675778 0.0746258 0.0415688 -0.0695744 0.0783561 
0.034386 -0.070625 0.0801575 0.0271822 -0.0715259 0.0816471 0.0198284 -0.0713539 0.080902 
0.0126229 -0.0710007 0.0797744 0.0061783 -0.069719 0.076687 7.78235e-05 -0.0682861 0.0732746 
-0.00468061 -0.0662632 0.0685945 -0.00895891 -0.0641707 0.063753 -0.0117568 -0.0618635 0.0584137 
-0.014042 -0.0595852 0.0531096 -0.0150455 -0.057379 0.047894 -0.0155947 -0.0552843 0.0428792 
-0.0152071 -0.0534193 0.0382787 -0.014474 -0.051718 0.0339852 -0.0131457 -0.0502985 0.0302203 
-0.011593 -0.0490661 0.0268102 -0.00971492 -0.0481049 0.0239145 -0.00772536 -0.0473338 0.0213761 
-0.00559892 -0.0467962 0.0192762 -0.00345908 -0.0464399 0.0175035 0.0562321 -0.0619189 0.0549485 
0.0537931 -0.0646998 0.0594348 0.051226 -0.0674537 0.0638753 0.0456512 -0.0695754 0.0672372 
0.039993 -0.0716117 0.0704497 0.0333975 -0.072688 0.0719816 0.0267837 -0.073613 0.0732448 
0.0200384 -0.0734532 0.0725826 0.0134223 -0.0731095 0.0715896 0.00746882 -0.0718227 0.0689024 
0.00181762 -0.0703795 0.0659285 -0.00265473 -0.0683267 0.0618366 -0.00669945 -0.0661972 0.057593 
-0.00942565 -0.0638312 0.0528815 -0.0116864 -0.0614868 0.0481863 -0.0127836 -0.0591963 0.043532 
-0.0134584 -0.0570122 0.0390406 -0.0132621 -0.0550472 0.0348854 -0.0127348 -0.0532443 0.0309917 
-0.0116375 -0.0517206 0.0275484 -0.0103166 -0.0503863 0.024415 -0.00867156 -0.0493265 0.0217309 
-0.00690684 -0.0484624 0.019364 -0.00499527 -0.0478384 0.0173865 -0.00305709 -0.0474031 0.0157027 
0.0533985 -0.0636477 0.049408 0.051132 -0.0664813 0.0532316 0.0487485 -0.0692874 0.0570143 
0.0436162 -0.071445 0.0598382 0.0384126 -0.0735162 0.0625346 0.0324054 -0.0746155 0.0637983 
0.0263825 -0.0755621 0.0648362 0.0202468 -0.0754145 0.0642565 0.0142212 -0.0750805 0.0633979 
0.00876034 -0.0737912 0.0611095 0.00356004 -0.0723409 0.0585728 -0.000624186 -0.070263 0.0550677 
-0.00443327 -0.0681017 0.0514207 -0.00708565 -0.0656835 0.0473366 -0.00932001 -0.0632798 0.04325 
-0.0105093 -0.0609126 0.0391574 -0.0113083 -0.0586466 0.0351901 -0.0113025 -0.0565892 0.0314812 
-0.0109805 -0.0546921 0.0279885 -0.0101142 -0.0530711 0.0248681 -0.00902539 -0.0516415 0.0220128 
-0.00761392 -0.0504893 0.0195416 -0.00607485 -0.0495376 0.0173476 -0.00437917 -0.048832 0.0154937 
-0.00264373 -0.048322 0.0139 0.0443403 0.0246085 0.0130139 0.0430778 0.0257478 0.0144797 
0.0417578 0.0268568 0.0159357 0.0390873 0.0272547 0.0171577 0.0364079 0.0275694 0.0183517 
0.0336296 0.0269493 0.0192307 0.0308963 0.026177 0.0200616 0.0284867 0.0243146 0.020547 
0.0262499 0.0222411 0.0209662 0.0248985 0.0190863 0.0210465 0.0239017 0.0157492 0.0210379 
0.024288 0.0117006 0.0206828 0.0251047 0.00767619 0.0201985 0.0272487 0.00372621 0.0193157 
0.0296201 -1.15439e-05 0.0182681 0.0325599 -0.0032187 0.0168085 0.0353946 -0.00640267 0.01519 
0.0380123 -0.00953885 0.0132439 0.0403154 -0.0130082 0.0111509 0.0420768 -0.0170512 0.00880488 
0.0433247 -0.0216187 0.00629266 0.0438282 -0.0269467 0.00353943 0.0433612 -0.0327272 0.000625687 
0.0417033 -0.0390632 -0.00248506 0.0383817 -0.0453176 -0.00558223 0.0455549 0.0257297 0.0167182 
0.0440951 0.0270548 0.0184281 0.0425668 0.0283476 0.0201257 0.0394251 0.028881 0.0215335 
0.0362631 0.0293235 0.0229068 0.0328725 0.0287443 0.0238906 0.0295167 0.0279953 0.0248166 
0.0264114 0.0260291 0.0253272 0.0234936 0.0238196 0.0257634 0.0215369 0.0203627 0.0258178 
0.0200168 0.0166869 0.0257772 0.0201991 0.0121577 0.0253658 0.0209318 0.007678 0.0248071 
0.0233616 0.0033507 0.0237941 0.02602 -0.000653913 0.0225905 0.0292503 -0.0038518 0.0209108 
0.0322244 -0.00696094 0.0190897 0.0346699 -0.00988705 0.0169774 0.0366719 -0.013122 0.0147965 
0.0379101 -0.0168888 0.0124974 0.0386421 -0.0210989 0.0101532 0.0386401 -0.025952 0.0077435 
0.0378489 -0.0310948 0.00531762 0.0360892 -0.0365932 0.00287189 0.0330835 -0.0418474 0.000549253 
0.0469474 0.0268597 0.020824 0.045277 0.0284089 0.0228228 0.0435257 0.0299241 0.0248065 
0.0398738 0.0306418 0.0264353 0.0361878 0.0312622 0.0280216 0.032118 0.0307865 0.0291288 
0.0280688 0.0301256 0.0301663 0.024168 0.0281367 0.030704 0.0204681 0.0258737 0.031158 
0.0177979 0.0222068 0.0311826 0.0156661 0.0182792 0.0311066 0.0156344 0.0133353 0.0306382 
0.016315 0.0084563 0.0299982 0.0191915 0.00377753 0.0288291 0.0223051 -0.00047078 0.0274278 
0.0260114 -0.00364293 0.025446 0.0292753 -0.00667139 0.023334 0.0316266 -0.00940351 0.0209534 
0.0333983 -0.0124254 0.0185824 0.0341719 -0.0159463 0.0162279 0.0344762 -0.0198297 0.0139365 
0.0341003 -0.0242386 0.0117366 0.0331295 -0.0287978 0.00963082 0.0314284 -0.0335415 0.00764063 
0.0288333 -0.0379383 0.00584252 0.0486234 0.0278168 0.0254228 0.0467357 0.0296231 0.0277782 
0.0447542 0.0313945 0.0301151 0.0405697 0.0323488 0.0320176 0.0363359 0.0332015 0.0338669 
0.0315479 0.0329125 0.0351189 0.0267638 0.0324306 0.0362845 0.0220069 0.0305666 0.0368316 
0.0174589 0.0284174 0.0372811 0.0139809 0.0248069 0.03723 0.011149 0.0209152 0.0370725 
0.0108367 0.015927 0.0365006 0.0114299 0.0109792 0.0357301 0.0148147 0.00615618 0.0343473 
0.0184536 0.00175659 0.0326772 0.0227278 -0.00158439 0.0302887 0.0263543 -0.00477456 0.0277811 
0.0286449 -0.00765371 0.0250278 0.030234 -0.0107693 0.0223664 0.0306149 -0.0142922 0.0198633 
0.0305884 -0.018067 0.0175231 0.029971 -0.022207 0.0154189 0.028941 -0.0263665 0.0135011 
0.0274047 -0.0305497 0.0118119 0.0252577 -0.0343144 0.0103702 0.0505302 0.0286331 0.0304234 
0.0484198 0.0307234 0.0331905 0.0462022 0.0327787 0.0359353 0.0414669 0.0340118 0.0381543 
0.036666 0.0351414 0.0403076 0.0311281 0.0351067 0.0417217 0.0255751 0.034878 0.043029 
0.019913 0.0332593 0.043571 0.014463 0.0313601 0.0439977 0.0101005 0.0280231 0.0438334 
0.00649624 0.0244017 0.0435571 0.00584917 0.0196709 0.0428437 0.00632628 0.0149236 0.0419025 
0.0102696 0.0101252 0.0402592 0.0144911 0.00564962 0.0382623 0.0194078 0.00198128 0.0353818 
0.0234561 -0.0015681 0.0323933 0.0257133 -0.00487215 0.0291825 0.0271586 -0.00833147 0.0261491 
0.0272058 -0.0120582 0.0234213 0.0269271 -0.0159022 0.0209492 0.0261761 -0.0199162 0.0188481 
0.0251853 -0.0238257 0.0170105 0.0239 -0.0276069 0.0154964 0.0222316 -0.0309229 0.014274 
0.0527915 0.0289684 0.0359456 0.0504623 0.0313451 0.0392167 0.0480127 0.0336873 0.0424607 
0.042733 0.0352208 0.0450699 0.0373727 0.036651 0.0475968 0.031107 0.0369197 0.0491975 
0.0248137 0.0370001 0.0506619 0.0183227 0.0357319 0.0511487 0.0120525 0.0342073 0.0514881 
0.00691382 0.0313691 0.0510723 0.00260799 0.0282731 0.0505241 0.00155023 0.0241713 0.0494593 
0.00175305 0.0199633 0.0481472 0.00584262 0.0154279 0.0460724 0.0102479 0.0109881 0.0436192 
0.0154426 0.00678745 0.0402199 0.0196794 0.0026336 0.0367389 0.0219403 -0.00142374 0.0330894 
0.0233567 -0.00551217 0.0296876 0.0233186 -0.00965414 0.0267122 0.0230233 -0.0137524 0.0240674 
0.0223551 -0.0177872 0.0219022 0.0215701 -0.0215983 0.0200645 0.0206417 -0.0251349 0.0186287 
0.0194889 -0.0281718 0.0175243 0.0552971 0.0289719 0.0418277 0.052752 0.0316366 0.0456662 
0.0500733 0.034268 0.0494725 0.0442536 0.0361167 0.0525226 0.0383393 0.037864 0.0554711 
0.0313608 0.0384698 0.0572755 0.024347 0.0388979 0.0589076 0.0170798 0.0380527 0.0593046 
0.0100455 0.0369888 0.0595122 0.0042055 0.0348047 0.0587495 -0.000753041 0.0324099 0.0578238 
-0.00227382 0.0291933 0.0562629 -0.00245444 0.0257584 0.0544416 0.00149706 0.0216504 0.0518177 
0.00581136 0.0173235 0.0488187 0.0110326 0.0124491 0.0448821 0.0152969 0.00752167 0.0409004 
0.0175871 0.00248458 0.0368255 0.0190537 -0.0024298 0.0330577 0.0191018 -0.00713282 0.0298189 
0.0189523 -0.011613 0.0269733 0.0185161 -0.0157699 0.0246978 0.0180519 -0.0195872 0.0228045 
0.0175533 -0.0229876 0.0213803 0.0169417 -0.0258623 0.0203238 0.0581379 0.028064 0.0481347 
0.0553899 0.0309574 0.0526494 0.0524954 0.0338192 0.0571261 0.0461599 0.0359375 0.0607106 
0.0397173 0.0379567 0.0641692 0.0320708 0.0388612 0.0662114 0.0243903 0.0395967 0.0680335 
0.0164657 0.0391207 0.0682781 0.00879567 0.0384539 0.0682727 0.00243083 0.0368098 0.0669859 
-0.00305264 0.0349858 0.0654864 -0.00509871 0.03246 0.0631579 -0.00584339 0.0296306 0.0605706 
-0.00257549 0.0258654 0.0571856 0.0011151 0.0216564 0.0534903 0.00586239 0.0163382 0.0490196 
0.00982726 0.010887 0.0445609 0.0121784 0.00516172 0.0401273 0.0138169 -0.000336763 0.03604 
0.0142281 -0.00544463 0.0325494 0.0144738 -0.0102005 0.0294955 0.0144793 -0.0144459 0.027075 
0.0144893 -0.0182713 0.0250808 0.0145045 -0.0215812 0.0236099 0.014461 -0.0243565 0.0225401 
0.0611734 0.0266269 0.0546884 0.0582298 0.0297146 0.0599425 0.0551273 0.0327726 0.0651525 
0.0482901 0.035134 0.0693256 0.0413344 0.0373989 0.0733458 0.0330457 0.0385798 0.0756455 
0.0247297 0.0395993 0.0776704 0.0162167 0.0394612 0.0777264 0.00798542 0.0391546 0.0774608 
0.00119826 0.0379844 0.075547 -0.00473592 0.0366554 0.0733598 -0.00734345 0.0347074 0.0701061 
-0.00875708 0.0323863 0.0666036 -0.00648953 0.0289147 0.0623344 -0.00373196 0.0248267 0.0578554 
0.000250667 0.0191979 0.0528523 0.00372644 0.0133682 0.0479306 0.00615683 0.00712398 0.0431768 
0.00803791 0.00118181 0.0387971 0.00897297 -0.00424021 0.0350613 0.00975866 -0.00921017 0.031795 
0.0103278 -0.0135246 0.0292093 0.0109008 -0.0173592 0.027088 0.0114786 -0.0206048 0.0255365 
0.012019 -0.0233174 0.0244179 0.0643646 0.0238089 0.0613326 0.0612447 0.0269458 0.0674159 
0.0579537 0.0300555 0.0734488 0.0506443 0.0325277 0.0782988 0.0432039 0.0349071 0.0829649 
0.0342896 0.0362429 0.085563 0.0253531 0.0374213 0.087822 0.0162582 0.0374708 0.087651 
0.00746677 0.0373555 0.0870765 0.000230886 0.0363954 0.0844343 -0.00618627 0.0352719 0.081457 
-0.00941035 0.0335114 0.0771723 -0.0115388 0.0313663 0.072655 -0.0102892 0.0280351 0.0674206 
-0.00848129 0.0240825 0.062078 -0.00527763 0.0185767 0.0564651 -0.00231237 0.0128544 0.0510133 
0.000161199 0.00668531 0.0458937 0.00226507 0.000814988 0.0411841 0.00373222 -0.00454079 0.0371806 
0.00507572 -0.00942934 0.033678 0.00623991 -0.0136404 0.0309018 0.00739271 -0.0173658 0.0286237 
0.00853152 -0.0204954 0.0269569 0.00962721 -0.0231187 0.0257517 0.0676314 0.0203213 0.0680205 
0.0643443 0.023437 0.0749765 0.0608744 0.0265285 0.081876 0.0531072 0.0290474 0.0874456 
0.0451959 0.0314775 0.0927986 0.0356637 0.0329094 0.0957149 0.0261143 0.034186 0.0982231 
0.0164406 0.0343503 0.0978064 0.00708952 0.0343444 0.0968994 -0.000607907 0.0334664 0.0934798 
-0.00752368 0.0324079 0.0896627 -0.011391 0.0306459 0.0842957 -0.0142566 0.0285157 0.0787152 
-0.0140334 0.0252505 0.0724764 -0.0131832 0.0214404 0.0662315 -0.0107655 0.0162679 0.0599713 
-0.0083211 0.0108885 0.0539569 -0.00582183 0.00508254 0.0484492 -0.00350478 -0.000465983 0.0433917 
-0.00150155 -0.00557109 0.0391094 0.00040837 -0.0102349 0.0353591 0.00218297 -0.0142589 0.0323801 
0.00392361 -0.0178179 0.0299309 0.00562257 -0.0208062 0.0281318 0.00725971 -0.0233275 0.0268218 
0.0706738 0.0151402 0.0741368 0.0672479 0.018011 0.0819608 0.0636281 0.020861 0.0897228 
0.0554554 0.0232223 0.0960272 0.0471238 0.025503 0.102082 0.037005 0.0268777 0.105331 
0.0268679 0.0281066 0.108101 0.0165987 0.02829 0.107439 0.00666491 0.0283049 0.106201 
-0.00154913 0.0274567 0.102013 -0.00899779 0.0264245 0.0973739 -0.0134614 0.0246754 0.0909754 
-0.0169655 0.0226038 0.0843817 -0.017511 0.0195381 0.0771863 -0.0173694 0.0160344 0.0700666 
-0.0155102 0.0114357 0.0631366 -0.0134404 0.0066604 0.0565313 -0.0109362 0.00152086 0.0505957 
-0.00846845 -0.00341825 0.045159 -0.00606362 -0.00801218 0.0405818 -0.00371245 -0.0122307 0.0365712 
-0.0014391 -0.0159049 0.0333821 0.000788306 -0.0191705 0.0307518 0.00295933 -0.0219348 0.0288073 
0.00504843 -0.0242915 0.0273753 0.0736266 0.00928188 0.0800244 0.0700729 0.0118181 0.0887144 
0.066315 0.0143374 0.0973373 0.0577577 0.0164592 0.104383 0.0490261 0.0185104 0.111146 
0.0383332 0.0197668 0.114733 0.0276184 0.0208895 0.11777 0.016747 0.0210537 0.116863 
0.00622137 0.0210541 0.115295 -0.00253133 0.0202147 0.110342 -0.0105266 0.0191934 0.104887 