# vtk DataFile Version 2.0
vtk output
ASCII
DATASET RECTILINEAR_GRID
DIMENSIONS 25 25 25
X_COORDINATES 25 float
-10 -9.79167 -9.58333 -9.375 -9.16667 -8.95833 -8.75 -8.54167 -8.33333 
-8.125 -7.91667 -7.70833 -7.5 -7.29167 -7.08333 -6.875 -6.66667 -6.45833 
-6.25 -6.04167 -5.83333 -5.625 -5.41667 -5.20833 -5 
Y_COORDINATES 25 float
-5 -4.79167 -4.58333 -4.375 -4.16667 -3.95833 -3.75 -3.54167 -3.33333 
-3.125 -2.91667 -2.70833 -2.5 -2.29167 -2.08333 -1.875 -1.66667 -1.45833 
-1.25 -1.04167 -0.833333 -0.625 -0.416667 -0.208333 0 
Z_COORDINATES 25 float
-5 -4.79167 -4.58333 -4.375 -4.16667 -3.95833 -3.75 -3.54167 -3.33333 
-3.125 -2.91667 -2.70833 -2.5 -2.29167 -2.08333 -1.875 -1.66667 -1.45833 
-1.25 -1.04167 -0.833333 -0.625 -0.416667 -0.208333 0 
POINT_DATA 15625
VECTORS grad float
0.0748733 0.0790364 0.0217895 0.0731225 0.0838223 0.0242023 0.0712644 0.0885973 0.0266357 
0.0668835 0.0931161 0.0295541 0.0623579 0.0975768 0.0324699 0.0562036 0.101384 0.0353554 
0.0498556 0.105046 0.0381326 0.0421187 0.10766 0.0401349 0.0342285 0.110016 0.0418451 
0.0255528 0.111048 0.042059 0.0168927 0.111723 0.04178 0.00829288 0.111008 0.0395793 
-6.74615e-06 0.109893 0.0367465 -0.00738091 0.107544 0.0319648 -0.0140996 0.104818 0.0265119 
-0.0191794 0.101148 0.0193811 -0.023204 0.0971625 0.0116375 -0.0250521 0.0925266 0.00262974 
-0.0254017 0.0876239 -0.00680189 -0.0231705 0.082262 -0.0169636 -0.019048 0.0766113 -0.0270768 
-0.012183 0.0705419 -0.0371197 -0.00341553 0.0640263 -0.0462509 0.00768672 0.056963 -0.054263 
0.019974 0.0490618 -0.0606009 0.0798504 0.0811913 0.0188179 0.07803 0.0863519 0.0215699 
0.0760945 0.0915004 0.0243508 0.071456 0.0963609 0.0278126 0.0666525 0.101158 0.0312817 
0.059994 0.105238 0.0348325 0.0531135 0.10916 0.0382712 0.0446415 0.111953 0.0409061 
0.0359928 0.114472 0.043217 0.0264388 0.115583 0.043867 0.016899 0.116322 0.0439659 
0.00741456 0.115609 0.0419157 -0.0017398 0.114489 0.0391699 -0.00987645 0.112114 0.0342794 
-0.017305 0.109372 0.0286757 -0.0229632 0.10571 0.0212892 -0.0275156 0.10176 0.0132847 
-0.029787 0.0972147 0.00400588 -0.0305423 0.0924307 -0.005666 -0.0286864 0.0872355 -0.0160147 
-0.0249836 0.0817416 -0.0262587 -0.0186028 0.0758147 -0.0363506 -0.010452 0.0693552 -0.0454565 
-0.000128826 0.0622423 -0.0533523 0.0111403 0.0541648 -0.0594827 0.085209 0.0829823 0.0151035 
0.0833074 0.0885002 0.0181894 0.0812822 0.0940041 0.0213142 0.0763537 0.0991785 0.0253516 
0.0712391 0.104283 0.0294087 0.0640308 0.108601 0.0336878 0.0565719 0.112751 0.0378525 
0.0473163 0.115693 0.0411976 0.037862 0.118347 0.0441862 0.0273899 0.119523 0.0453481 
0.0169349 0.120314 0.0458995 0.00654712 0.119606 0.0440701 -0.00347338 0.118487 0.0414835 
-0.0123613 0.1161 0.0365622 -0.02048 0.113356 0.0308947 -0.0266757 0.10972 0.023362 
-0.0317106 0.105822 0.0152247 -0.0343513 0.101383 0.00584045 -0.0354668 0.0967357 -0.00388271 
-0.0339556 0.0917277 -0.0141895 -0.0306679 0.0864228 -0.0243276 -0.0248044 0.0806874 -0.034221 
-0.0173265 0.0743648 -0.0431024 -0.00786757 0.0673213 -0.0507419 0.0023276 0.0592384 -0.0566393 
0.0909051 0.0844517 0.0107319 0.0889119 0.0903112 0.0141471 0.086786 0.0961545 0.0176124 
0.0815391 0.101618 0.0222539 0.076084 0.107005 0.0269299 0.0682857 0.111532 0.031993 
0.0602077 0.11588 0.0369411 0.0501255 0.118944 0.0410647 0.039824 0.121709 0.0447993 
0.0283985 0.122936 0.0465401 0.0169971 0.123769 0.0476101 0.00568932 0.123068 0.0460637 
-0.00520742 0.121955 0.0437001 -0.0148366 0.119568 0.0388168 -0.0236281 0.116837 0.0331625 
-0.0303252 0.113241 0.0255806 -0.0358026 0.10941 0.0174237 -0.0387648 0.105093 0.00808057 
-0.0402004 0.100597 -0.00152674 -0.0390068 0.0957943 -0.0115891 -0.0361301 0.0907069 -0.0214121 
-0.030813 0.0852065 -0.030888 -0.024058 0.0790918 -0.0393687 -0.0155384 0.0722233 -0.0466279 
-0.00646671 0.0642862 -0.0522698 0.0969553 0.0851482 0.0049008 0.0948532 0.0913183 0.00855407 
0.0926081 0.0974701 0.012271 0.0870013 0.103191 0.0174838 0.0811636 0.10883 0.0227505 
0.072729 0.113539 0.0286239 0.0639868 0.11806 0.0343874 0.0530408 0.121239 0.0393625 
0.0418569 0.124109 0.043921 0.029455 0.1254 0.0463447 0.0170868 0.126291 0.0480416 
0.0048502 0.125619 0.0469042 -0.00692761 0.12453 0.0448947 -0.0172909 0.122153 0.0401962 
-0.0267429 0.119432 0.0347081 -0.0339167 0.115851 0.0272458 -0.0398085 0.112048 0.0192438 
-0.0430562 0.107784 0.0101286 -0.0447772 0.103365 0.000824258 -0.043869 0.0986768 -0.00880575 
-0.0413768 0.0937243 -0.0181403 -0.036588 0.0883883 -0.0270465 -0.0305355 0.0824521 -0.0350118 
-0.0229321 0.0757794 -0.0418223 -0.0149287 0.0680748 -0.0471967 0.103271 0.0852653 -0.00202496 
0.101047 0.0917225 0.0017979 0.0986689 0.0981594 0.00569981 0.0926708 0.104115 0.0114592 
0.0864192 0.109982 0.0172956 0.0773136 0.114853 0.0239992 0.0678734 0.11953 0.0306021 
0.0560356 0.122816 0.0364833 0.0439432 0.125788 0.0419241 0.0305472 0.127153 0.0451086 
0.017197 0.128113 0.0475138 0.0040251 0.127487 0.0468798 -0.0086374 0.126436 0.0453226 
-0.0197292 0.124074 0.0409192 -0.0298326 0.121362 0.0357121 -0.0374648 0.117777 0.0284959 
-0.0437497 0.113972 0.0207798 -0.0472561 0.109713 0.0120325 -0.0492367 0.105313 0.00317153 
-0.0485894 0.100671 -0.00588524 -0.0464619 0.0957915 -0.0146014 -0.042188 0.0905671 -0.0228237 
-0.0368226 0.0847874 -0.0301876 -0.0301179 0.0783261 -0.036498 -0.0231413 0.0709192 -0.0415959 
0.109897 0.0839927 -0.0116147 0.107537 0.0907091 -0.00787405 0.105011 0.0974046 -0.00403435 
0.09859 0.103606 0.00213322 0.0918928 0.109716 0.00841154 0.0820881 0.114804 0.0159357 
0.0719235 0.119696 0.0233817 0.0591795 0.123184 0.0302683 0.0461647 0.126357 0.036704 
0.0317622 0.127909 0.0408285 0.0174145 0.129043 0.0441323 0.00328065 0.128544 0.0442358 
-0.0102962 0.127594 0.0433722 -0.0221557 0.12525 0.0395268 -0.0329477 0.122524 0.0348627 
-0.041071 0.118845 0.0281519 -0.0477735 0.114927 0.0209672 -0.0515458 0.110518 0.0128049 
-0.0537791 0.105978 0.00457658 -0.053362 0.101211 -0.00376557 -0.0515474 0.0962505 -0.0117568 
-0.0477064 0.0910103 -0.0192391 -0.0429185 0.0853035 -0.0259673 -0.0369684 0.0790242 -0.0317702 
-0.0308466 0.0719407 -0.036582 0.116718 0.08184 -0.0228915 0.114214 0.0887979 -0.0193926 
0.111531 0.0957352 -0.0157717 0.104667 0.102189 -0.00928357 0.0975046 0.108552 -0.00264437 
0.086983 0.113891 0.00569413 0.0760771 0.119035 0.0139857 0.062418 0.122787 0.0219407 
0.0484719 0.126222 0.0294424 0.0330549 0.128033 0.0346205 0.0177 0.129409 0.0389436 
0.00258728 0.129089 0.0399328 -0.0119228 0.128278 0.0399154 -0.0245746 0.125953 0.0367947 
-0.0360788 0.123199 0.0328396 -0.044714 0.119369 0.0267983 -0.0518496 0.115269 0.0203004 
-0.0558923 0.110612 0.0128607 -0.0583741 0.105829 0.00538489 -0.0581675 0.100829 -0.0021531 
-0.0566331 0.095691 -0.00935184 -0.0531732 0.0903542 -0.0160586 -0.0488931 0.0846674 -0.0221295 
-0.0436066 0.0785513 -0.0274201 -0.0382306 0.0718078 -0.03194 0.123827 0.0772349 -0.0385814 
0.1212 0.084402 -0.035823 0.118384 0.0915553 -0.0329094 0.111117 0.098383 -0.0263504 
0.103529 0.105132 -0.0195775 0.092327 0.110989 -0.0103973 0.0807148 0.116666 -0.0012087 
0.0661608 0.121047 0.00804136 0.0512933 0.12511 0.0168535 0.03482 0.127537 0.0234212 
0.0183985 0.129483 0.0291114 0.00217921 0.129554 0.0313794 -0.0134028 0.129039 0.032606 
-0.02702 0.126717 0.0306213 -0.0394 0.12386 0.0277764 -0.048687 0.119666 0.0227808 
-0.0563651 0.115143 0.0173155 -0.0607248 0.109941 0.0108809 -0.0634602 0.104632 0.00439296 
-0.0633982 0.0991389 -0.00218693 -0.0620348 0.0936057 -0.00848456 -0.0587844 0.088015 -0.0143729 
-0.0548047 0.0822414 -0.0197595 -0.04993 0.0762435 -0.0245303 -0.0450335 0.0698337 -0.0287302 
0.131089 0.0713269 -0.0566157 0.128351 0.0786861 -0.0548627 0.125414 0.0860415 -0.0529161 
0.117765 0.0933072 -0.0464189 0.109772 0.100512 -0.0396329 0.0979097 0.10703 -0.0295966 
0.0856095 0.113388 -0.0194834 0.0701714 0.118594 -0.00881804 0.0543881 0.123478 0.00143441 
0.036836 0.126712 0.00957028 0.0193163 0.129404 0.0168123 0.00192272 0.129978 0.0205681 
-0.014805 0.129841 0.0232498 -0.0294795 0.127512 0.0226196 -0.0428222 0.124514 0.0210981 
-0.0528354 0.119842 0.0173482 -0.0611141 0.114767 0.0130989 -0.0658155 0.108864 0.00781968 
-0.0688073 0.102879 0.00244465 -0.0688547 0.0967543 -0.00309535 -0.0676044 0.0907098 -0.00843415 
-0.0644723 0.0847816 -0.0134812 -0.0606826 0.0788644 -0.0181691 -0.0560861 0.0729607 -0.0224164 
-0.0515277 0.0668816 -0.0262811 0.138567 0.0609822 -0.0812568 0.135866 0.068368 -0.081362 
0.132959 0.075778 -0.081213 0.125212 0.0837556 -0.0750892 0.117093 0.091725 -0.0685558 
0.104799 0.0996027 -0.0574152 0.0920221 0.107369 -0.0460941 0.0757793 0.114337 -0.0334785 
0.0591174 0.120969 -0.0212438 0.0403084 0.125881 -0.0109619 0.021461 0.130108 -0.00159498 
0.0024645 0.13166 0.00420386 -0.0158543 0.132242 0.00889222 -0.0320835 0.12983 0.0101566 
-0.0468394 0.1265 0.0104847 -0.0579124 0.120872 0.00847168 -0.0670349 0.114744 0.00589084 
-0.0721349 0.107582 0.0021388 -0.0753519 0.100421 -0.00181063 -0.0753262 0.0932633 -0.0061 
-0.0739498 0.0863936 -0.0103234 -0.0706148 0.0799417 -0.0144513 -0.0666735 0.0737645 -0.0183842 
-0.0619881 0.0679243 -0.0220778 -0.0574148 0.062177 -0.0255606 0.146142 0.0486801 -0.108813 
0.143542 0.0560195 -0.111152 0.140733 0.0634189 -0.113167 0.133011 0.0722293 -0.107554 
0.12489 0.0810996 -0.101391 0.112266 0.0906445 -0.0890365 0.0991042 0.10014 -0.0763825 
0.0820918 0.109284 -0.0615806 0.064568 0.118073 -0.0471246 0.0444232 0.125047 -0.0344418 
0.0241471 0.131158 -0.022697 0.00335847 0.133898 -0.0146102 -0.016748 0.135348 -0.00767187 
-0.0347512 0.13282 -0.00427455 -0.0511192 0.129073 -0.00186484 -0.0633991 0.12228 -0.00192416 
-0.0734728 0.114876 -0.00263702 -0.0789962 0.106209 -0.00469782 -0.0824248 0.0976521 -0.0070837 
-0.0822454 0.0892842 -0.0100295 -0.0806374 0.081451 -0.0130685 -0.0769579 0.0743932 -0.0162428 
-0.0727142 0.0679044 -0.0193957 -0.0677782 0.0621141 -0.0225224 -0.0630341 0.0566993 -0.0256027 
0.153353 0.0288261 -0.145082 0.151344 0.0354344 -0.151011 0.149143 0.042182 -0.156501 
0.142407 0.0522014 -0.151682 0.135224 0.0624336 -0.146088 0.123013 0.0750602 -0.13178 
0.110146 0.087761 -0.117021 0.0925701 0.100994 -0.0990239 0.0742692 0.113827 -0.0813758 
0.0522521 0.124613 -0.0655177 0.0298859 0.134184 -0.0506587 0.00615793 0.13902 -0.0396964 
-0.016897 0.141961 -0.0299175 -0.0378764 0.139062 -0.0237872 -0.0569055 0.134436 -0.0186894 
-0.0710587 0.125495 -0.0161724 -0.0825235 0.115839 -0.0144327 -0.0884434 0.104706 -0.0142957 
-0.0918948 0.0939463 -0.0146883 -0.0910948 0.0838306 -0.0159926 -0.0887398 0.0746593 -0.0176231 
-0.08413 0.0668574 -0.0197264 -0.0790291 0.060013 -0.0220185 -0.0733253 0.0543436 -0.0245423 
-0.0679588 0.049353 -0.0271788 0.160432 0.00624499 -0.184497 0.159193 0.011875 -0.194504 
0.157783 0.0177391 -0.203943 0.152379 0.0291034 -0.20002 0.146475 0.0408641 -0.195068 
0.134946 0.0570831 -0.178541 0.122617 0.0735219 -0.161398 0.104553 0.0915357 -0.13984 
0.0855053 0.109095 -0.11865 0.0614222 0.124323 -0.0993365 0.0367272 0.137925 -0.0810975 
0.00964548 0.145183 -0.0670475 -0.016777 0.14984 -0.0542147 -0.0411667 0.146478 -0.0451349 
-0.0632358 0.140807 -0.0371299 -0.0795029 0.129362 -0.0318119 -0.0925176 0.117101 -0.0274083 
-0.0988244 0.103155 -0.0248908 -0.102231 0.0899021 -0.0231347 -0.100641 0.0778446 -0.0226901 
-0.0973531 0.0672 -0.0228311 -0.0916015 0.0586042 -0.023821 -0.0854429 0.051388 -0.0252231 
-0.0787847 0.045865 -0.0271311 -0.0726328 0.0413319 -0.0293087 0.164923 -0.0259476 -0.232894 
0.165736 -0.0229983 -0.248898 0.166453 -0.0196417 -0.26413 0.164913 -0.0067168 -0.261234 
0.162766 0.00694006 -0.256931 0.153799 0.0288319 -0.236795 0.143712 0.0511755 -0.215893 
0.1256 0.0767576 -0.189505 0.10597 0.1018 -0.163636 0.0785584 0.124074 -0.140423 
0.0500004 0.144047 -0.118412 0.0169719 0.155046 -0.101088 -0.0154009 0.162236 -0.0849137 
-0.0457522 0.157681 -0.0722867 -0.0730033 0.149931 -0.0606795 -0.0925041 0.134196 -0.0516223 
-0.10769 0.117699 -0.0436603 -0.113976 0.0996336 -0.0379573 -0.116686 0.0829224 -0.0333844 
-0.113234 0.068544 -0.030758 -0.107969 0.0562831 -0.0291002 -0.100074 0.0470926 -0.0288469 
-0.0920026 0.0397776 -0.0292906 -0.0837141 0.0347644 -0.0305895 -0.0762462 0.0310205 -0.0323189 
0.168664 -0.0609226 -0.283892 0.171902 -0.0611466 -0.306447 0.175132 -0.0607677 -0.328006 
0.178188 -0.0462199 -0.326176 0.180516 -0.0305603 -0.322523 0.174655 -0.00239344 -0.298376 
0.167303 0.0264823 -0.273318 0.149272 0.0604395 -0.241732 0.129107 0.0937628 -0.210855 
0.0980007 0.123836 -0.183614 0.0651356 0.150858 -0.157717 0.0254097 0.165981 -0.137064 
-0.0136613 0.17594 -0.117466 -0.0507125 0.16998 -0.101119 -0.0837659 0.159853 -0.0857083 
-0.106824 0.139308 -0.0726401 -0.124361 0.118105 -0.0608607 -0.13051 0.0955422 -0.0517392 
-0.132333 0.0750929 -0.0441562 -0.126708 0.0582839 -0.0392226 -0.119164 0.0443653 -0.0356765 
-0.108836 0.0346379 -0.0341424 -0.0986046 0.0273031 -0.0336077 -0.08849 0.0229047 -0.0342995 
-0.0795527 0.0200461 -0.0355839 0.16498 -0.0987326 -0.338606 0.173206 -0.104102 -0.369658 
0.181614 -0.108619 -0.399402 0.194315 -0.0930871 -0.398413 0.206042 -0.0759609 -0.395077 
0.20682 -0.0408943 -0.365326 0.2054 -0.00482231 -0.334675 0.188229 0.0384559 -0.297577 
0.16783 0.0810876 -0.261651 0.130888 0.120405 -0.231731 0.0910346 0.155795 -0.20326 
0.0398273 0.175874 -0.180436 -0.010682 0.188862 -0.158118 -0.0590389 0.179984 -0.137356 
-0.101569 0.165789 -0.117125 -0.129531 0.138303 -0.0982197 -0.149831 0.110774 -0.0809344 
-0.154329 0.083161 -0.0669898 -0.153537 0.058912 -0.0553046 -0.143636 0.0404574 -0.0475104 
-0.131983 0.0258065 -0.0417392 -0.11779 0.016671 -0.0389012 -0.104304 0.010349 -0.0374445 
-0.0916837 0.00748002 -0.0376831 -0.080823 0.00625143 -0.0386711 0.159625 -0.137181 -0.394157 
0.173416 -0.14814 -0.434143 0.187602 -0.157983 -0.472489 0.211083 -0.141611 -0.472293 
0.233317 -0.123139 -0.469197 0.24153 -0.0810321 -0.433484 0.24676 -0.0376145 -0.396918 
0.230625 0.0151975 -0.354238 0.21006 0.0673687 -0.313252 0.1668 0.116254 -0.280957 
0.119355 0.160311 -0.250206 0.0555904 0.185534 -0.225472 -0.00742372 0.201608 -0.200592 
-0.0681227 0.189472 -0.17526 -0.120956 0.17083 -0.149978 -0.154124 0.13592 -0.124826 
-0.177281 0.101703 -0.101655 -0.179787 0.0689146 -0.0825709 -0.175991 0.0408521 -0.0665377 
-0.16134 0.0209285 -0.0557586 -0.145167 0.00575342 -0.0476863 -0.126787 -0.00253616 -0.0435391 
-0.1098 -0.00761293 -0.0411731 -0.0945215 -0.00874674 -0.0409933 -0.0816352 -0.0081778 -0.0417182 
0.143294 -0.15575 -0.438582 0.165469 -0.170672 -0.487708 0.188363 -0.184391 -0.534825 
0.228149 -0.169812 -0.534718 0.26627 -0.152939 -0.531204 0.285658 -0.11026 -0.48936 
0.300988 -0.0660906 -0.447059 0.287237 -0.0112419 -0.401481 0.267389 0.043257 -0.358477 
0.216297 0.0959618 -0.328669 0.158838 0.143498 -0.30024 0.0765439 0.170878 -0.277188 
-0.00493741 0.1875 -0.252159 -0.0839142 0.170955 -0.221035 -0.151356 0.147465 -0.18887 
-0.189961 0.106614 -0.154101 -0.214981 0.0679042 -0.122179 -0.211981 0.0336123 -0.096128 
-0.201872 0.00542775 -0.0745226 -0.179519 -0.0122386 -0.060574 -0.156572 -0.0246462 -0.050277 
-0.132762 -0.0294285 -0.0452749 -0.111518 -0.0310983 -0.0424732 -0.0934235 -0.0289484 -0.0423719 
-0.078554 -0.0254191 -0.0432602 0.125134 -0.171005 -0.481152 0.156163 -0.189621 -0.539453 
0.188252 -0.206972 -0.59537 0.245264 -0.194625 -0.595235 0.300169 -0.179843 -0.591192 
0.331357 -0.137669 -0.543189 0.357361 -0.0938473 -0.495183 0.346218 -0.0382116 -0.447154 
0.327234 0.017413 -0.402638 0.268058 0.072979 -0.376128 0.20018 0.123131 -0.350789 
0.0983625 0.15217 -0.330017 -0.00257977 0.168918 -0.305241 -0.100824 0.14777 -0.268122 
-0.183592 0.119366 -0.228767 -0.227672 0.0728203 -0.183821 -0.25439 0.0299846 -0.142671 
-0.245298 -0.00519918 -0.109348 -0.228324 -0.0328907 -0.0819662 -0.197778 -0.0476787 -0.0648172 
-0.16768 -0.0567702 -0.0523082 -0.138233 -0.0576016 -0.0465271 -0.112607 -0.0555043 -0.0433686 
-0.0916697 -0.0498126 -0.0434287 -0.0748239 -0.0431291 -0.0445513 0.10548 -0.147488 -0.48908 
0.143721 -0.163313 -0.55137 0.183312 -0.178248 -0.611101 0.254625 -0.1723 -0.610667 
0.323526 -0.164572 -0.606213 0.365304 -0.136817 -0.556542 0.401119 -0.10767 -0.507483 
0.394195 -0.0685453 -0.462806 0.377807 -0.0291769 -0.42256 0.312916 0.0114402 -0.405021 
0.236413 0.0476866 -0.388099 0.114626 0.0668871 -0.373587 -0.00620838 0.0757598 -0.351766 
-0.124104 0.0527883 -0.30741 -0.221453 0.0247961 -0.259363 -0.267435 -0.0157481 -0.202091 
-0.292133 -0.051269 -0.150434 -0.272933 -0.0764295 -0.110359 -0.246094 -0.0941581 -0.0781849 
-0.206098 -0.0990874 -0.0596168 -0.168395 -0.0992396 -0.0466138 -0.134017 -0.0924651 -0.0416803 
-0.104956 -0.0838662 -0.039545 -0.0824192 -0.0730283 -0.0408441 -0.0647546 -0.0621029 -0.0430512 
0.0856553 -0.119565 -0.493072 0.130923 -0.131861 -0.558762 0.177824 -0.143693 -0.621739 
0.263104 -0.144618 -0.620975 0.345686 -0.144508 -0.616124 0.397916 -0.132753 -0.565296 
0.443443 -0.119909 -0.515712 0.440921 -0.0992614 -0.475047 0.427328 -0.0781244 -0.439728 
0.35699 -0.0544801 -0.431804 0.272067 -0.034017 -0.423905 0.130258 -0.0259608 -0.416105 
-0.0105173 -0.0258727 -0.397545 -0.148108 -0.0503525 -0.345811 -0.259953 -0.0773276 -0.288903 
-0.307431 -0.110541 -0.219059 -0.329687 -0.137447 -0.15675 -0.299924 -0.151344 -0.109983 
-0.262877 -0.158033 -0.0731282 -0.213288 -0.152311 -0.0533433 -0.167928 -0.142885 -0.0400415 
-0.1287 -0.128089 -0.0361404 -0.0963115 -0.112678 -0.0351853 -0.0723169 -0.0965112 -0.0378457 
-0.0539649 -0.0812202 -0.041234 0.0803715 -0.0732549 -0.450093 0.124616 -0.0796594 -0.508808 
0.170483 -0.0861857 -0.565116 0.254458 -0.09557 -0.564877 0.335908 -0.105051 -0.561072 
0.388963 -0.115615 -0.517165 0.435433 -0.125945 -0.474551 0.434716 -0.134596 -0.441209 
0.422464 -0.143236 -0.412917 0.351087 -0.151823 -0.41051 0.264309 -0.161626 -0.407323 
0.117464 -0.176174 -0.401101 -0.0275915 -0.192398 -0.382605 -0.167131 -0.213793 -0.326264 
-0.278437 -0.232706 -0.264849 -0.319157 -0.245416 -0.19075 -0.333765 -0.251524 -0.125956 
-0.294517 -0.244014 -0.0803559 -0.249548 -0.23135 -0.0458254 -0.194723 -0.20981 -0.0303599 
-0.146023 -0.187016 -0.0213637 -0.106203 -0.162402 -0.0217482 -0.0742144 -0.13911 -0.0245103 
-0.0518358 -0.117442 -0.0301906 -0.0352778 -0.0978827 -0.0359862 0.0760361 -0.0257451 -0.404051 
0.118733 -0.0261041 -0.455114 0.163022 -0.027181 -0.504106 0.244695 -0.045128 -0.504447 
0.324048 -0.0643279 -0.501783 0.377298 -0.0976243 -0.465324 0.42414 -0.131577 -0.430169 
0.42506 -0.170232 -0.404365 0.414053 -0.209402 -0.383238 0.341925 -0.251215 -0.38608 
0.253721 -0.292228 -0.387326 0.102817 -0.330128 -0.382346 -0.0454983 -0.363157 -0.363704 
-0.18583 -0.381166 -0.302937 -0.295617 -0.391558 -0.2373 -0.32904 -0.382906 -0.159488 
-0.335659 -0.367421 -0.0927421 -0.286998 -0.337842 -0.0488207 -0.234254 -0.305282 -0.0170717 
-0.174478 -0.267589 -0.0062866 -0.12272 -0.231179 -0.00189632 -0.0825863 -0.196629 -0.0067786 
-0.05124 -0.165388 -0.0134235 -0.0306777 -0.138206 -0.0222317 -0.0160755 -0.114385 -0.0305147 
0.079733 0.00168359 -0.334208 0.114972 0.00221499 -0.373672 0.151512 0.00177568 -0.411544 
0.21863 -0.0214737 -0.411983 0.283738 -0.0465808 -0.410078 0.326227 -0.0925867 -0.381814 
0.3629 -0.140061 -0.354306 0.357886 -0.198059 -0.332215 0.342104 -0.257122 -0.313137 
0.271142 -0.321643 -0.3095 0.187166 -0.383936 -0.303433 0.0524304 -0.437544 -0.287886 
-0.0776777 -0.481764 -0.261088 -0.193518 -0.497038 -0.199596 -0.280958 -0.500945 -0.136138 
-0.297395 -0.476432 -0.0677625 -0.290799 -0.444764 -0.0117922 -0.2367 -0.398338 0.0185939 
-0.181392 -0.350839 0.037249 -0.124004 -0.301492 0.0357006 -0.0759714 -0.255676 0.0294045 
-0.0415034 -0.214981 0.0162245 -0.0157228 -0.179137 0.00290452 -0.000604009 -0.149245 -0.0105872 
0.00929852 -0.123508 -0.0224293 0.0774157 0.0761275 0.0207535 0.0758046 0.081256 0.0234437 
0.0740859 0.0863818 0.0261625 0.0698374 0.0914422 0.0295531 0.0654133 0.0964538 0.0329509 
0.0590137 0.100918 0.0364314 0.052362 0.105231 0.0397948 0.0439034 0.108464 0.0423192 
0.0352236 0.111407 0.0445009 0.0254102 0.112858 0.0449261 0.0155676 0.113893 0.0447641 
0.00561129 0.113309 0.0423122 -0.00404238 0.11226 0.0391129 -0.012763 0.109775 0.0336087 
-0.0207764 0.106866 0.0273182 -0.0270215 0.102897 0.0190615 -0.0321071 0.0986004 0.01007 
-0.0348008 0.0936278 -0.00043719 -0.0357938 0.0884122 -0.0115146 -0.033858 0.0827781 -0.0235742 
-0.0296759 0.0769152 -0.0356812 -0.0222365 0.070721 -0.047857 -0.0125049 0.0641874 -0.0589179 
3.98608e-05 0.0572375 -0.0686104 0.0138333 0.0496072 -0.076057 0.0827602 0.077742 0.0178019 
0.0811335 0.0832595 0.020915 0.0793929 0.0887741 0.024067 0.0749721 0.0942223 0.0281319 
0.0703505 0.0996182 0.0322166 0.0634677 0.104425 0.0365232 0.0562941 0.109071 0.0407064 
0.0470365 0.11256 0.0440044 0.0375233 0.11574 0.046915 0.0267006 0.11734 0.0478397 
0.0158444 0.118506 0.0480981 0.00485687 0.117982 0.0457576 -0.00578873 0.116987 0.0425868 
-0.0153801 0.114537 0.036856 -0.0241926 0.111682 0.0302897 -0.0310577 0.107814 0.0216347 
-0.0366915 0.103664 0.0122482 -0.0397862 0.0989337 0.00135329 -0.0411466 0.0940122 -0.0100613 
-0.0395203 0.088762 -0.022371 -0.0356823 0.0832803 -0.0346473 -0.0286372 0.0774629 -0.0468753 
-0.0194249 0.0711716 -0.0578862 -0.00755283 0.0642988 -0.0674035 0.00533986 0.0565089 -0.0745505 
0.0884819 0.0787507 0.0142544 0.0868374 0.0846085 0.0178072 0.0850718 0.0904632 0.0214106 
0.0804634 0.0962456 0.0262025 0.075627 0.101972 0.0310286 0.0682264 0.10707 0.0362385 
0.0604951 0.111997 0.041319 0.050393 0.115705 0.0454713 0.0400018 0.119092 0.0491889 
0.0281292 0.12083 0.0506785 0.0162233 0.122123 0.0514192 0.00418793 0.121678 0.0492392 
-0.00745641 0.120761 0.0461482 -0.017895 0.118385 0.0402482 -0.0274708 0.115624 0.0334774 
-0.0348894 0.111898 0.0245293 -0.0409985 0.107933 0.0148824 -0.0444069 0.103474 0.00379432 
-0.0460607 0.0988725 -0.00772214 -0.0446927 0.0940241 -0.0199763 -0.041193 0.0889469 -0.0320928 
-0.0346022 0.0835382 -0.0440095 -0.0260224 0.0775545 -0.0546697 -0.0150017 0.0708652 -0.0637877 
-0.00317391 0.063086 -0.0705855 0.0945374 0.0792235 0.0101798 0.0928728 0.0853786 0.0141871 
0.0910799 0.0915302 0.0182581 0.08627 0.0975993 0.0238235 0.0812038 0.103609 0.0294392 
0.0732548 0.108951 0.0356208 0.0649339 0.114116 0.0416672 0.0539473 0.118011 0.0467451 
0.0426386 0.121574 0.0513389 0.0296798 0.123442 0.053451 0.0166926 0.124858 0.0547289 
0.00359462 0.12451 0.052753 -0.0090545 0.123692 0.0497871 -0.0203195 0.121425 0.0437687 
-0.0306269 0.118792 0.0368562 -0.0385403 0.115244 0.0277083 -0.04506 0.111497 0.01792 
-0.0487051 0.107338 0.00681085 -0.0505868 0.103078 -0.00459927 -0.0494317 0.0986475 -0.0165277 
-0.0462651 0.0939958 -0.0281931 -0.0401818 0.0890238 -0.0394771 -0.0323348 0.0834055 -0.0495203 
-0.0223234 0.0769939 -0.0580407 -0.0117057 0.069376 -0.0644456 0.100852 0.0784967 0.00485577 
0.0991643 0.0848576 0.00924273 0.09734 0.0912152 0.0137081 0.0923152 0.0974937 0.020015 
0.0870052 0.103712 0.0263917 0.0784878 0.109247 0.0335539 0.0695576 0.114604 0.0405794 
0.0576697 0.118673 0.0466255 0.0454284 0.122408 0.0521423 0.0313762 0.124437 0.054947 
0.0173029 0.126013 0.0568379 0.0031478 0.125818 0.0551647 -0.0104966 0.125155 0.0524312 
-0.0225664 0.123046 0.0464287 -0.0335793 0.120578 0.0395206 -0.0419501 0.117216 0.0303487 
-0.0488411 0.113672 0.0206071 -0.0526802 0.109751 0.00969012 -0.0547543 0.105751 -0.00139513 
-0.0537885 0.101616 -0.0127702 -0.0509473 0.097266 -0.0237725 -0.0453867 0.0926046 -0.0342341 
-0.0382963 0.0872754 -0.0435181 -0.0293284 0.0811266 -0.0513566 -0.0199284 0.0737536 -0.0573555 
0.107362 0.0768702 -0.00140534 0.105648 0.0833683 0.00330507 0.103789 0.0898637 0.00810995 
0.0985392 0.0962935 0.0151343 0.0929751 0.102663 0.0222506 0.0838741 0.108354 0.0304002 
0.07432 0.113867 0.0384147 0.0615183 0.118102 0.0454607 0.0483329 0.122006 0.0519358 
0.0331818 0.124219 0.0554857 0.018019 0.125981 0.0580465 0.00281084 0.125984 0.0567499 
-0.0118218 0.125517 0.0543293 -0.0246802 0.123603 0.0484433 -0.036379 0.121329 0.0416493 
-0.0451789 0.118157 0.0325853 -0.0524119 0.114804 0.0230313 -0.0564132 0.111076 0.0124665 
-0.0586528 0.107274 0.00186997 -0.0578586 0.103343 -0.00878105 -0.055337 0.0992021 -0.0189611 
-0.0503105 0.0947567 -0.0284582 -0.0439946 0.0896595 -0.0368762 -0.036096 0.0837624 -0.0439697 
-0.0279194 0.0766969 -0.0495526 0.113923 0.0732192 -0.0100399 0.112195 0.0797329 -0.00525898 
0.110315 0.0862475 -0.000364556 0.104865 0.0927848 0.00719677 0.0990729 0.0992693 0.0148795 
0.0894186 0.105159 0.0239277 0.0792715 0.110881 0.0328543 0.0655915 0.115401 0.0409094 
0.0514963 0.119599 0.0483687 0.035273 0.122153 0.0527745 0.0190421 0.124254 0.0561356 
0.00278203 0.124589 0.0554226 -0.0128448 0.124437 0.0535388 -0.0265189 0.122779 0.0480451 
-0.0389349 0.12073 0.0416464 -0.0482055 0.117705 0.0329851 -0.0558204 0.114469 0.0238996 
-0.0600207 0.110799 0.0139393 -0.0624536 0.107039 0.00404768 -0.0618425 0.103127 -0.00572565 
-0.0596287 0.0990192 -0.0149782 -0.0550909 0.0946295 -0.0234755 -0.0494667 0.0896549 -0.0310173 
-0.042509 0.0839628 -0.0373865 -0.0353941 0.0772358 -0.0425557 0.120516 0.068286 -0.0201776 
0.118782 0.0747382 -0.0154864 0.116889 0.0811972 -0.0106607 0.111256 0.087814 -0.00267682 
0.105252 0.09439 0.00546274 0.0950632 0.100506 0.0153533 0.0843427 0.106471 0.0251433 
0.0698071 0.111351 0.0342133 0.0548236 0.115922 0.0426731 0.0375451 0.118916 0.048005 
0.0202598 0.121452 0.0522491 0.00294839 0.122207 0.0522508 -0.0136763 0.122444 0.0510455 
-0.0281833 0.12108 0.0461188 -0.0413363 0.119276 0.0402935 -0.0511038 0.116371 0.0322216 
-0.0591261 0.113206 0.0237826 -0.0635489 0.109505 0.0145866 -0.0661925 0.105691 0.00553672 
-0.0657717 0.101679 -0.00326164 -0.0638582 0.0974943 -0.01152 -0.0597805 0.0930587 -0.0189952 
-0.0547956 0.0881376 -0.0256545 -0.0486975 0.0826208 -0.0313123 -0.0425419 0.0762519 -0.0360692 
0.126897 0.0601038 -0.0342413 0.125236 0.0663358 -0.0301456 0.123412 0.0725901 -0.025888 
0.117757 0.0793652 -0.017825 0.1117 0.0861304 -0.00955545 0.101129 0.0927834 0.00103718 
0.0899795 0.0993177 0.0115733 0.0746896 0.105 0.0217052 0.0589043 0.110386 0.0312393 
0.040581 0.114249 0.0377103 0.02223 0.117618 0.0430802 0.00377126 0.119065 0.0441555 
-0.0139646 0.119906 0.0440102 -0.0294715 0.118878 0.0401016 -0.0435284 0.117302 0.0352999 
-0.0539602 0.114354 0.0282652 -0.0625363 0.111067 0.0208865 -0.0672851 0.107079 0.0127983 
-0.0702042 0.102956 0.0048722 -0.0699722 0.0986024 -0.00277473 -0.0683048 0.094135 -0.00992363 
-0.0645562 0.0895022 -0.0163503 -0.0600259 0.0845341 -0.0221188 -0.0545361 0.0791543 -0.0270794 
-0.0490633 0.0731485 -0.0313997 0.133166 0.0501957 -0.0503907 0.13162 0.0561232 -0.0471593 
0.129908 0.0620934 -0.0437349 0.124316 0.0690687 -0.0357752 0.118293 0.0760749 -0.0275494 
0.107418 0.0834294 -0.0163292 0.0959169 0.0907064 -0.00510917 0.0799264 0.0974283 0.00610932 
0.0633853 0.103862 0.0167572 0.0440227 0.108822 0.0244804 0.0246 0.113236 0.0311049 
0.00494292 0.11552 0.0334446 -0.0139644 0.11708 0.034562 -0.0305598 0.116409 0.0319112 
-0.0456094 0.115051 0.0283721 -0.0567944 0.111976 0.0226124 -0.0660021 0.108464 0.0165138 
-0.0711318 0.104049 0.00971598 -0.0743609 0.0994843 0.00306362 -0.0743168 0.0946602 -0.00333816 
-0.0728666 0.089801 -0.00931643 -0.0693777 0.0848909 -0.0146806 -0.0652037 0.0798223 -0.0195538 
-0.0601889 0.0745591 -0.0238246 -0.0552519 0.0689191 -0.0276955 0.138831 0.0350666 -0.0721865 
0.137667 0.040361 -0.0706236 0.136345 0.0457431 -0.0688217 0.131343 0.0531876 -0.0614022 
0.125871 0.0607497 -0.0536239 0.115115 0.0696339 -0.0418078 0.103653 0.0785116 -0.0299044 
0.0871289 0.0873427 -0.0173744 0.0699469 0.0958727 -0.00536575 0.0493936 0.10286 0.0039709 
0.0286946 0.109159 0.0122354 0.00742765 0.112773 0.0163187 -0.0130823 0.115415 0.0192022 
-0.031258 0.11506 0.0183868 -0.047756 0.113774 0.0166891 -0.0600595 0.110159 0.0127859 
-0.0701868 0.105982 0.00850795 -0.0758256 0.100648 0.00345703 -0.0794086 0.095196 -0.001538 
-0.079451 0.0895429 -0.00643678 -0.0780484 0.0840139 -0.011056 -0.0745507 0.0786645 -0.01527 
-0.0704237 0.0733971 -0.0191863 -0.0655244 0.0682303 -0.0227376 -0.0607632 0.0629626 -0.0261035 
0.144231 0.0176343 -0.0964734 0.143565 0.0221504 -0.0969338 0.142756 0.0268102 -0.0971026 
0.138576 0.0348427 -0.0904161 0.133885 0.0430995 -0.0832633 0.123434 0.053879 -0.0708655 
0.112183 0.0647359 -0.0582789 0.0951986 0.0761482 -0.0443382 0.0774264 0.0872361 -0.0308597 
0.0556155 0.0966613 -0.0197502 0.03355 0.105217 -0.00967569 0.0104917 0.110379 -0.00363742 
-0.0118111 0.114263 0.00123431 -0.031784 0.114207 0.00250924 -0.0499315 0.112928 0.00290837 
-0.0635149 0.10859 0.00111799 -0.0746888 0.103555 -0.00110084 -0.0808932 0.0970817 -0.00420338 
-0.0848494 0.0905473 -0.00737184 -0.0849336 0.0839073 -0.0106539 -0.0835038 0.0775856 -0.013831 
-0.0798787 0.0717255 -0.016856 -0.0756622 0.0662161 -0.0197883 -0.0707198 0.0611367 -0.0226069 
-0.0659757 0.0562441 -0.0254435 0.148029 -0.00768367 -0.127737 0.148584 -0.00483122 -0.131365 
0.149036 -0.00172577 -0.134618 0.147085 0.00732436 -0.12907 0.144548 0.0168041 -0.122891 
0.13542 0.0311167 -0.109611 0.1253 0.0456372 -0.0960145 0.108078 0.0616484 -0.0801535 
0.0898038 0.0772518 -0.0647099 0.0661365 0.090765 -0.0514064 0.0419962 0.103049 -0.0390983 
0.0160104 0.110537 -0.0306724 -0.00922409 0.116192 -0.0233381 -0.0321419 0.116195 -0.0193699 
-0.0529495 0.114509 -0.0162405 -0.0684815 0.108599 -0.0152083 -0.0811716 0.101864 -0.0146919 
-0.0880001 0.0934232 -0.0152393 -0.0922366 0.0851102 -0.0160621 -0.0920088 0.0770166 -0.0173591 
-0.0901363 0.0695784 -0.0188142 -0.0858787 0.0630905 -0.0204986 -0.0810743 0.0573032 -0.0223396 
-0.0755985 0.0523758 -0.024373 -0.0704277 0.0479364 -0.0266206 0.151249 -0.0358491 -0.16152 
0.153284 -0.0349802 -0.168728 0.155269 -0.0337294 -0.175468 0.156054 -0.0235066 -0.171205 
0.156168 -0.0126133 -0.166125 0.14873 0.00582399 -0.151854 0.140074 0.0246165 -0.137131 
0.122694 0.045955 -0.119165 0.10395 0.0667808 -0.101578 0.07821 0.0849777 -0.0859279 