# vtk DataFile Version 2.0
vtk output
ASCII
DATASET RECTILINEAR_GRID
DIMENSIONS 25 25 25
X_COORDINATES 25 float
0 0.208333 0.416667 0.625 0.833333 1.04167 1.25 1.45833 1.66667 
1.875 2.08333 2.29167 2.5 2.70833 2.91667 3.125 3.33333 3.54167 
3.75 3.95833 4.16667 4.375 4.58333 4.79167 5 
Y_COORDINATES 25 float
-5 -4.79167 -4.58333 -4.375 -4.16667 -3.95833 -3.75 -3.54167 -3.33333 
-3.125 -2.91667 -2.70833 -2.5 -2.29167 -2.08333 -1.875 -1.66667 -1.45833 
-1.25 -1.04167 -0.833333 -0.625 -0.416667 -0.208333 0 
Z_COORDINATES 25 float
-10 -9.79167 -9.58333 -9.375 -9.16667 -8.95833 -8.75 -8.54167 -8.33333 
-8.125 -7.91667 -7.70833 -7.5 -7.29167 -7.08333 -6.875 -6.66667 -6.45833 
-6.25 -6.04167 -5.83333 -5.625 -5.41667 -5.20833 -5 
POINT_DATA 15625
VECTORS grad float
-0.0312384 0.0486757 0.0432787 -0.0310169 0.0481291 0.0407403 -0.030337 0.0475568 0.0384257 
-0.0296322 0.0469812 0.0361316 -0.028547 0.0463541 0.0341536 -0.0274283 0.0457194 0.0322188 
-0.0260147 0.0450178 0.0306632 -0.0245666 0.044304 0.0291772 -0.0229117 0.0435167 0.0281082 
-0.0212299 0.0427128 0.0271365 -0.0194282 0.0418353 0.0265969 -0.0176155 0.0409378 0.0261805 
-0.0157645 0.0399712 0.026189 -0.0139261 0.0389821 0.026341 -0.0121224 0.0379312 0.0268898 
-0.0103608 0.0368568 0.0275932 -0.00869461 0.0357293 0.028647 -0.00710355 0.0345785 0.0298555 
-0.00565388 0.033384 0.0313551 -0.0043136 0.0321678 0.0329981 -0.00314606 0.0309172 0.0348677 
-0.0021224 0.0296476 0.0368603 -0.00129057 0.0283527 0.039017 -0.000637333 0.0270429 0.0412684 
-0.000185989 0.0257164 0.0436269 -0.0317858 0.0494077 0.043668 -0.0315676 0.0488546 0.0412205 
-0.0309085 0.0482793 0.0389866 -0.0302254 0.0477006 0.0367722 -0.0291744 0.0470704 0.0348576 
-0.0280907 0.0464323 0.0329838 -0.02672 0.0457248 0.0314699 -0.0253156 0.0450041 0.0300221 
-0.0237086 0.0442051 0.0289707 -0.022075 0.043388 0.0280119 -0.0203227 0.0424906 0.0274651 
-0.0185592 0.0415708 0.0270357 -0.0167566 0.0405737 0.0270121 -0.0149658 0.0395511 0.0271256 
-0.0132075 0.0384577 0.0276188 -0.0114899 0.037337 0.0282598 -0.00986448 0.0361546 0.0292361 
-0.00831218 0.0349451 0.0303602 -0.00689751 0.0336845 0.0317628 -0.00558963 0.0323989 0.0333022 
-0.00445039 0.0310736 0.0350577 -0.00345178 0.0297274 0.0369298 -0.0026407 0.0283531 0.0389575 
-0.00200426 0.0269641 0.0410734 -0.00156524 0.0255584 0.0432891 -0.0323534 0.0502952 0.0440817 
-0.0321352 0.0497229 0.0417308 -0.0314954 0.0491322 0.0395846 -0.0308325 0.0485381 0.0374569 
-0.0298155 0.0478935 0.0356137 -0.028767 0.0472408 0.0338092 -0.0274405 0.0465177 0.0323452 
-0.0260812 0.045781 0.0309437 -0.0245245 0.0449633 0.0299173 -0.0229416 0.0441266 0.0289787 
-0.0212423 0.0432053 0.02843 -0.0195317 0.0422601 0.0279926 -0.0177822 0.0412319 0.0279396 
-0.0160437 0.0401759 0.0280164 -0.0143359 0.0390426 0.028453 -0.0126674 0.0378791 0.0290296 
-0.0110877 0.0366474 0.0299237 -0.00957888 0.0353856 0.0309577 -0.00820325 0.0340671 0.0322553 
-0.00693121 0.0327211 0.0336822 -0.00582272 0.0313316 0.0353135 -0.00485073 0.0299198 0.0370548 
-0.00406075 0.0284784 0.0389426 -0.0034403 0.0270229 0.0409129 -0.00301149 0.0255514 0.0429764 
-0.0329388 0.0513201 0.0445172 -0.0327178 0.0507176 0.0422675 -0.0320959 0.0501004 0.0402153 
-0.0314519 0.04948 0.0381807 -0.030469 0.0488109 0.0364161 -0.0294557 0.0481338 0.0346879 
-0.0281744 0.0473866 0.0332811 -0.0268614 0.0466258 0.0319332 -0.025357 0.0457833 0.0309384 
-0.0238272 0.0449212 0.0300262 -0.022184 0.0439727 0.0294806 -0.0205298 0.0429991 0.0290396 
-0.0188373 0.0419393 0.0289595 -0.0171553 0.04085 0.0290013 -0.0155026 0.0396791 0.0293804 
-0.0138876 0.0384759 0.0298907 -0.0123582 0.0371998 0.0306985 -0.0108969 0.0358915 0.0316373 
-0.00956396 0.0345223 0.0328228 -0.00833079 0.0331239 0.0341295 -0.00725521 0.0316793 0.0356276 
-0.00631122 0.030212 0.0372287 -0.00554268 0.0287142 0.0389672 -0.0049375 0.0272035 0.0407829 
-0.00451701 0.0256781 0.042686 -0.0335726 0.052519 0.0450301 -0.0333456 0.0518728 0.0428823 
-0.03274 0.0512145 0.0409272 -0.0321132 0.0505531 0.0389888 -0.0311631 0.0498447 0.0373076 
-0.0301837 0.0491286 0.0356609 -0.0289466 0.0483443 0.0343172 -0.0276787 0.0475467 0.0330288 
-0.026226 0.0466693 0.0320718 -0.0247487 0.0457727 0.0311918 -0.0231618 0.0447908 0.0306546 
-0.0215642 0.043784 0.0302147 -0.0199296 0.0426908 0.0301109 -0.0183053 0.0415677 0.0301203 
-0.0167094 0.0403618 0.0304428 -0.0151499 0.0391228 0.0308868 -0.0136727 0.0378088 0.0316064 
-0.012261 0.0364614 0.0324472 -0.0109724 0.0350513 0.0335164 -0.00977941 0.0336111 0.034698 
-0.00873734 0.0321235 0.036057 -0.00782122 0.0306132 0.0375121 -0.00707304 0.0290726 0.0390954 
-0.00648124 0.0275205 0.0407513 -0.00606622 0.0259553 0.0424893 -0.0342427 0.0538484 0.0456011 
-0.0340074 0.0531484 0.0435556 -0.0334167 0.0524379 0.0416998 -0.032806 0.0517245 0.0398601 
-0.0318876 0.0509658 0.0382661 -0.0309412 0.0501997 0.0367045 -0.0297474 0.0493685 0.0354285 
-0.028524 0.0485246 0.0342041 -0.0271225 0.0476049 0.0332893 -0.0256972 0.0466668 0.0324462 
-0.0241665 0.0456471 0.0319211 -0.0226257 0.0446032 0.0314858 -0.0210499 0.0434754 0.0313609 
-0.0194842 0.0423181 0.0313399 -0.0179464 0.0410791 0.0316064 -0.0164436 0.0398071 0.0319842 
-0.0150203 0.0384601 0.032614 -0.0136596 0.0370795 0.0333548 -0.0124167 0.0356357 0.0343045 
-0.0112648 0.0341617 0.0353573 -0.0102567 0.0326401 0.036573 -0.00936835 0.0310963 0.0378778 
-0.00863973 0.029523 0.0393013 -0.00805987 0.0279397 0.0407934 -0.00764818 0.0263452 0.042363 
-0.0349916 0.0553673 0.0463041 -0.0347478 0.0546002 0.0443573 -0.0341717 0.0538196 0.0425999 
-0.0335766 0.0530361 0.0408579 -0.0326882 0.0522077 0.0393522 -0.0317727 0.0513724 0.0378771 
-0.0306185 0.0504764 0.0366718 -0.0294357 0.0495689 0.0355146 -0.0280805 0.048593 0.0346463 
-0.0267025 0.0476004 0.0338441 -0.0252233 0.0465342 0.0333357 -0.0237346 0.0454458 0.0329096 
-0.0222136 0.0442805 0.0327677 -0.0207028 0.0430874 0.0327201 -0.0192202 0.0418177 0.0329339 
-0.0177718 0.0405163 0.0332481 -0.0164005 0.0391431 0.0337903 -0.0150891 0.0377374 0.0344326 
-0.0138906 0.0362702 0.0352633 -0.0127787 0.0347737 0.0361877 -0.0118033 0.0332308 0.0372599 
-0.0109413 0.0316667 0.0384142 -0.0102305 0.0300744 0.0396778 -0.00966041 0.0284737 0.0410064 
-0.00924946 0.0268634 0.0424083 -0.0357905 0.0570064 0.0470907 -0.0355379 0.0561634 0.0452404 
-0.0349763 0.0553015 0.0435807 -0.0343965 0.0544367 0.0419358 -0.0335368 0.0535261 0.0405192 
-0.0326509 0.0526093 0.0391315 -0.0315341 0.0516372 0.0379987 -0.0303894 0.0506552 0.0369107 
-0.0290775 0.0496142 0.0360915 -0.0277437 0.048559 0.0353329 -0.0263129 0.0474409 0.0348441 
-0.0248736 0.0463033 0.03443 -0.0234047 0.0450985 0.0342737 -0.0219465 0.0438687 0.0342021 
-0.0205174 0.0425697 0.0343651 -0.0191216 0.0412413 0.0346176 -0.0178012 0.0398463 0.0350733 
-0.0165382 0.0384204 0.035618 -0.0153834 0.0369365 0.0363302 -0.0143105 0.0354246 0.0371264 
-0.0133671 0.0338686 0.0380551 -0.0125305 0.0322925 0.0390587 -0.0118364 0.0306899 0.0401624 
-0.0112748 0.0290803 0.0413276 -0.010863 0.0274629 0.0425623 -0.0366992 0.0588581 0.0480648 
-0.0364452 0.0579251 0.0463035 -0.0359026 0.056958 0.0447362 -0.0353422 0.0559876 0.0431835 
-0.0345099 0.0549674 0.0418533 -0.0336516 0.0539417 0.0405506 -0.0325649 0.0528682 0.03949 
-0.0314507 0.0517873 0.0384711 -0.0301714 0.0506619 0.0377028 -0.028871 0.0495261 0.0369901 
-0.027477 0.048344 0.0365245 -0.0260756 0.047147 0.0361263 -0.0246484 0.0458982 0.0359606 
-0.0232327 0.0446288 0.0358701 -0.0218487 0.0433022 0.035988 -0.0204978 0.0419499 0.0361847 
-0.019222 0.0405397 0.03656 -0.0180018 0.0391016 0.0370132 -0.0168862 0.037611 0.0376132 
-0.0158487 0.0360947 0.0382873 -0.0149343 0.0345376 0.0390785 -0.0141206 0.0329621 0.0399376 
-0.0134411 0.0313621 0.0408872 -0.0128861 0.0297563 0.0418949 -0.0124718 0.028144 0.0429683 
-0.0376664 0.0608227 0.0491385 -0.0374148 0.0597922 0.0474622 -0.0368936 0.0587072 0.0459847 
-0.0363549 0.0576185 0.0445214 -0.0355491 0.056474 0.0432761 -0.0347174 0.055325 0.042057 
-0.0336569 0.0541366 0.0410685 -0.0325691 0.0529438 0.0401188 -0.0313168 0.0517236 0.0394024 
-0.0300441 0.0504976 0.0387366 -0.0286807 0.0492454 0.0382963 -0.0273111 0.0479835 0.0379161 
-0.02592 0.0466882 0.0377435 -0.0245416 0.0453775 0.0376369 -0.0231981 0.0440242 0.0377129 
-0.0218879 0.0426499 0.0378569 -0.0206534 0.0412279 0.038155 -0.019473 0.0397817 0.0385199 
-0.0183945 0.0382899 0.0390109 -0.0173903 0.0367749 0.0395662 -0.0165034 0.0352233 0.0402232 
-0.0157112 0.033655 0.0409409 -0.0150452 0.0320644 0.0417396 -0.0144958 0.030469 0.042593 
-0.0140781 0.0288683 0.0435081 -0.0387777 0.063047 0.0504611 -0.0385525 0.0619004 0.048859 
-0.0380667 0.0606603 0.0474613 -0.0375629 0.0594159 0.0460776 -0.0367831 0.0581045 0.0449095 
-0.035976 0.0567902 0.0437666 -0.034929 0.0554497 0.0428454 -0.0338537 0.0541091 0.0419608 
-0.0326087 0.0527676 0.0412953 -0.0313437 0.0514268 0.0406762 -0.0299898 0.0500891 0.0402636 
-0.0286315 0.0487491 0.0399046 -0.0272575 0.0474014 0.0397307 -0.0258983 0.0460454 0.0396141 
-0.0245802 0.0446667 0.039656 -0.0232969 0.043273 0.0397557 -0.0220927 0.0418455 0.0399864 
-0.0209424 0.0403985 0.0402734 -0.0198935 0.0389145 0.0406663 -0.0189165 0.0374107 0.0411139 
-0.0180528 0.0358754 0.041648 -0.0172787 0.0343252 0.0422356 -0.0166243 0.0327552 0.0428944 
-0.0160792 0.0311809 0.0436039 -0.0156578 0.029602 0.0443707 -0.0399526 0.0653858 0.0518935 
-0.0397644 0.064115 0.0503608 -0.0393203 0.0627035 0.0490385 -0.0388572 0.0612867 0.0477302 
-0.0381031 0.0597898 0.0466357 -0.0373198 0.0582917 0.0455656 -0.0362805 0.0567826 0.0447098 
-0.0352116 0.0552783 0.0438885 -0.0339652 0.0538038 0.0432735 -0.0326991 0.0523373 0.042701 
-0.0313455 0.0509073 0.0423172 -0.0299892 0.0494834 0.0419808 -0.028624 0.0480807 0.0418079 
-0.0272762 0.0466777 0.041684 -0.0259768 0.045274 0.0416954 -0.0247142 0.0438622 0.0417546 
-0.0235355 0.0424319 0.0419222 -0.0224109 0.0409872 0.0421357 -0.0213886 0.0395153 0.0424354 
-0.020436 0.038027 0.0427803 -0.0195934 0.0365127 0.0431965 -0.0188361 0.0349854 0.0436588 
-0.0181922 0.0334408 0.0441825 -0.017651 0.0318925 0.0447527 -0.0172257 0.0303398 0.0453755 
-0.0413173 0.0680763 0.0536574 -0.0412234 0.0666481 0.0521786 -0.0408518 0.0649996 0.0509141 
-0.0404583 0.0633447 0.0496635 -0.0397284 0.0615924 0.0486268 -0.0389652 0.0598421 0.047614 
-0.0379087 0.0581092 0.0468126 -0.0368198 0.0563892 0.0460442 -0.0355368 0.0547466 0.0454746 
-0.0342345 0.053123 0.0449445 -0.032846 0.0515833 0.0445899 -0.0314581 0.0500609 0.0442775 
-0.0300722 0.0485982 0.0441109 -0.0287082 0.0471451 0.0439858 -0.0274052 0.0457189 0.0439756 
-0.0261432 0.0442925 0.0440042 -0.0249744 0.0428657 0.0441205 -0.0238621 0.0414304 0.0442729 
-0.0228565 0.0399788 0.0444932 -0.0219203 0.0385146 0.0447493 -0.0210937 0.0370302 0.0450619 
-0.0203493 0.0355347 0.0454129 -0.0197143 0.0340243 0.0458152 -0.0191764 0.0325102 0.0462589 
-0.018748 0.0309918 0.0467496 -0.0427506 0.0708936 0.0555409 -0.0427717 0.0692961 0.0541105 
-0.0424838 0.067387 0.0528974 -0.0421702 0.0654703 0.0516983 -0.0414641 0.0634374 0.0507134 
-0.0407196 0.0614102 0.0497524 -0.0396368 0.0594336 0.0490014 -0.0385185 0.057479 0.0482824 
-0.0371862 0.0556558 0.0477562 -0.0358348 0.0538635 0.0472669 -0.0343989 0.0522079 0.0469417 
-0.0329671 0.0505818 0.0466539 -0.0315498 0.0490572 0.0464954 -0.0301598 0.047553 0.0463713 
-0.0288451 0.0461051 0.0463428 -0.0275764 0.0446655 0.0463443 -0.0264119 0.0432445 0.0464136 
-0.0253071 0.041821 0.0465095 -0.0243146 0.0403928 0.0466552 -0.0233919 0.0389557 0.0468275 
-0.0225794 0.0375046 0.0470417 -0.0218465 0.036044 0.0472866 -0.0212199 0.0345709 0.0475723 
-0.020685 0.033094 0.0478942 -0.020254 0.0316129 0.048257 -0.0444553 0.0742114 0.0578947 
-0.0447113 0.0723736 0.0564868 -0.0445622 0.0700815 0.0552899 -0.0443797 0.0677812 0.0541071 
-0.0436858 0.0653536 0.0531416 -0.0429442 0.0629393 0.0522008 -0.041784 0.0606425 0.0514771 
-0.0405833 0.058382 0.0507861 -0.0391397 0.0563395 0.0502914 -0.0376787 0.0543444 0.0498325 
-0.0361402 0.0525601 0.0495337 -0.0346124 0.0508205 0.049269 -0.0331219 0.0492352 0.0491221 
-0.0316672 0.0476825 0.049004 -0.0303119 0.0462201 0.0489653 -0.0290106 0.0447747 0.0489487 
-0.027832 0.0433683 0.0489824 -0.0267187 0.0419653 0.0490336 -0.0257284 0.0405688 0.0491181 
-0.0248105 0.0391668 0.0492201 -0.0240068 0.0377564 0.04935 -0.023282 0.0363379 0.0495025 
-0.0226622 0.0349087 0.0496851 -0.0221306 0.0334755 0.0498975 -0.0216984 0.0320378 0.0501435 
-0.0462387 0.0776741 0.0603846 -0.0467641 0.0755754 0.0589918 -0.0467699 0.072865 0.0578008 
-0.0467333 0.0701457 0.0566242 -0.0460481 0.0672903 0.0556686 -0.045305 0.064457 0.0547389 
-0.0440524 0.0618178 0.0540359 -0.0427541 0.0592309 0.0533667 -0.0411813 0.0569578 0.0528999 
-0.0395931 0.0547501 0.0524686 -0.037936 0.0528334 0.0521952 -0.0362972 0.0509775 0.0519531 
-0.0347212 0.0493319 0.051819 -0.0331907 0.0477315 0.0517081 -0.0317865 0.0462565 0.0516616 
-0.0304453 0.0448077 0.0516297 -0.029247 0.0434182 0.0516309 -0.0281206 0.0420382 0.051641 
-0.0271295 0.0406758 0.051668 -0.0262138 0.0393114 0.0517038 -0.0254174 0.0379437 0.0517535 
-0.0246995 0.0365694 0.0518176 -0.0240863 0.0351862 0.0519009 -0.0235578 0.0337985 0.0520073 
-0.0231251 0.0324059 0.0521397 -0.0484627 0.0817918 0.0636127 -0.049489 0.0792783 0.0621784 
-0.0497304 0.0759287 0.0609141 -0.0499125 0.0725728 0.0596651 -0.0491863 0.0691205 0.0586508 
-0.048386 0.0657075 0.0576659 -0.0469341 0.0626402 0.0569392 -0.0454314 0.0596499 0.0562505 
-0.0436233 0.0571216 0.055789 -0.0418063 0.0546826 0.0553653 -0.0399497 0.0526402 0.0551096 
-0.0381249 0.0506772 0.0548843 -0.0364097 0.0489886 0.0547637 -0.0347554 0.0473581 0.0546622 
-0.0332694 0.0458883 0.0546134 -0.0318598 0.0444528 0.0545724 -0.0306235 0.0430947 0.0545495 
-0.0294686 0.0417506 0.0545273 -0.0284669 0.0404328 0.0545066 -0.0275461 0.0391151 0.054486 
-0.0267529 0.0377978 0.0544655 -0.0260394 0.0364743 0.0544511 -0.0254323 0.0351428 0.0544449 
-0.0249077 0.0338062 0.0544543 -0.0244762 0.0324638 0.0544813 -0.0507859 0.0860569 0.067007 
-0.052365 0.0830939 0.0655185 -0.0528602 0.0790554 0.064163 -0.0532775 0.0750139 0.0628238 
-0.052499 0.0709267 0.0617354 -0.051629 0.066898 0.0606804 -0.0499538 0.0633832 0.0599201 
-0.0482227 0.0599721 0.0592024 -0.0461553 0.0571832 0.0587412 -0.0440867 0.0545087 0.0583206 
-0.0420124 0.0523421 0.0580809 -0.0399848 0.0502741 0.057871 -0.0381183 0.0485465 0.0577643 
-0.0363292 0.0468897 0.0576726 -0.0347542 0.0454291 0.0576226 -0.0332699 0.0440105 0.0575741 
-0.0319913 0.0426871 0.0575288 -0.0308044 0.0413819 0.0574763 -0.0297901 0.040111 0.0574102 
-0.0288623 0.0388422 0.0573354 -0.0280714 0.0375768 0.057247 -0.0273618 0.0363058 0.0571564 
-0.0267607 0.0350272 0.0570628 -0.0262401 0.0337429 0.0569771 -0.0258104 0.0324519 0.0569005 
-0.0538955 0.0908212 0.0716815 -0.0564421 0.087114 0.069991 -0.0572695 0.0820518 0.068354 
-0.0579859 0.0769994 0.0667373 -0.0570005 0.0720977 0.0654317 -0.0559007 0.0672883 0.0641701 
-0.0537937 0.0632908 0.0632964 -0.0516316 0.0594338 0.0624766 -0.0491394 0.0564198 0.0619806 
-0.0466646 0.0535484 0.0615323 -0.0442677 0.051311 0.0612968 -0.0419429 0.0491899 0.0610928 
-0.0398673 0.047471 0.0609981 -0.0378933 0.0458324 0.0609156 -0.0362004 0.0444163 0.0608667 
-0.0346175 0.0430464 0.0608131 -0.0332838 0.0417812 0.0607488 -0.0320548 0.0405354 0.0606693 
-0.0310231 0.0393262 0.0605611 -0.0300852 0.0381188 0.0604359 -0.0292956 0.0369145 0.0602836 
-0.0285897 0.0357038 0.0601205 -0.0279955 0.0344844 0.0599431 -0.0274804 0.0332581 0.059766 
-0.0270547 0.0320241 0.0595892 -0.0571361 0.0956687 0.0765694 -0.0607193 0.0911681 0.0746523 
-0.061892 0.0850264 0.0727021 -0.0629183 0.0789089 0.0707766 -0.0617003 0.0731628 0.0692299 
-0.0603439 0.0675453 0.067739 -0.0577701 0.0630592 0.0667387 -0.0551434 0.0587521 0.0658046 
-0.0521987 0.0555188 0.0652678 -0.0492921 0.052457 0.0647868 -0.0465551 0.0501577 0.0645534 
-0.0439174 0.0479923 0.0643538 -0.041623 0.0462899 0.0642708 -0.0394557 0.0446769 0.0641973 
-0.0376403 0.0433112 0.0641499 -0.0359547 0.0419954 0.0640917 -0.0345637 0.0407923 0.0640089 
-0.033291 0.0396093 0.0639029 -0.032241 0.0384642 0.0637533 -0.0312925 0.0373203 0.0635782 
-0.030504 0.0361787 0.0633626 -0.0298019 0.0350295 0.0631278 -0.0292148 0.0338703 0.0628672 
-0.0287054 0.0327032 0.0625992 -0.0282839 0.0315269 0.0623228 -0.0617476 0.0994283 0.0837503 
-0.0670237 0.0937712 0.0812031 -0.0685108 0.0863044 0.0785001 -0.0697954 0.0788933 0.0758369 
-0.0679761 0.0723366 0.0737825 -0.0659972 0.0659582 0.0718108 -0.062614 0.0611489 0.0705666 
-0.0591988 0.0565578 0.0694119 -0.055592 0.0532762 0.0687943 -0.0520638 0.0501877 0.0682457 
-0.0488848 0.0479578 0.0680046 -0.0458462 0.0458701 0.0678013 -0.0432927 0.0442735 0.067729 
-0.0408997 0.0427666 0.0676635 -0.0389509 0.041508 0.067617 -0.0371556 0.0402959 0.0675531 
-0.0357084 0.0391892 0.0674496 -0.0343943 0.0380984 0.0673146 -0.0333307 0.0370376 0.0671205 
-0.032376 0.0359743 0.0668921 -0.0315932 0.0349073 0.0666096 -0.0308988 0.03383 0.0662998 
-0.0303221 0.0327391 0.0659535 -0.0298212 0.0316387 0.0655927 -0.029406 0.0305274 0.0652153 
-0.0665149 0.103064 0.0911918 -0.0735584 0.0962095 0.0879687 -0.0753564 0.0873896 0.0844629 
-0.0768935 0.0786588 0.0810131 -0.0744311 0.0712954 0.0784208 -0.0717881 0.0641616 0.0759397 
-0.0675564 0.0590478 0.0744383 -0.063316 0.0541917 0.073051 -0.0590233 0.0508811 0.0723478 
-0.0548519 0.0477845 0.0717279 -0.0512193 0.0456391 0.0714779 -0.0477697 0.0436429 0.0712701 
-0.0449526 0.0421622 0.0712083 -0.0423302 0.0407705 0.0711507 -0.0402468 0.0396254 0.071105 
-0.038341 0.0385227 0.0710352 -0.0368378 0.0375163 0.0709108 -0.0354826 0.0365211 0.0707466 
-0.0344059 0.0355468 0.0705076 -0.0334455 0.034566 0.0702255 -0.0326689 0.033575 0.0698757 
-0.0319826 0.0325708 0.0694905 -0.0314167 0.0315492 0.0690583 -0.0309246 0.0305163 0.0686043 
-0.0305159 0.0294707 0.0681258 -0.0730908 0.100247 0.102139 -0.082652 0.0924894 0.097295 
-0.0844291 0.0829873 0.0921791 -0.0858706 0.0736124 0.087163 -0.0821659 0.0661876 0.0836784 
-0.0782829 0.0590255 0.0803594 -0.072831 0.054176 0.078498 -0.0674259 0.0495943 0.0767877 
-0.0623014 0.0466195 0.0759842 -0.0573622 0.0438524 0.075282 -0.0532465 0.0420088 0.0750293 
-0.0493665 0.0403009 0.074823 -0.0463006 0.0390622 0.0747771 -0.0434665 0.0378976 0.0747311 
-0.0412744 0.0369383 0.0746854 -0.0392835 0.0360081 0.0746074 -0.0377483 0.0351436 0.0744561 
-0.036374 0.0342794 0.0742556 -0.0353021 0.0334159 0.0739625 -0.0343516 0.0325382 0.0736177 
-0.0335928 0.0316379 0.0731913 -0.0329239 0.0307197 0.0727221 -0.032375 0.0297777 0.072196 
-0.0318961 0.0288223 0.0716425 -0.0314964 0.0278517 0.0710581 -0.0797846 0.097009 0.113316 
-0.0919124 0.0883677 0.106788 -0.0936471 0.0782271 0.10001 -0.0949702 0.068252 0.0933765 
-0.0899842 0.0608144 0.0889765 -0.0848237 0.0536717 0.0847981 -0.0781273 0.0491234 0.0825699 
-0.0715353 0.0448513 0.0805307 -0.0655694 0.0422361 0.079626 -0.0598543 0.0398206 0.0788407 
-0.0552537 0.0382929 0.0785858 -0.050942 0.0368863 0.0783815 -0.0476282 0.0358976 0.0783517 
-0.0445837 0.0349674 0.0783177 -0.0422846 0.0341988 0.0782719 -0.0402101 0.0334451 0.0781855 
-0.0386446 0.0327252 0.0780069 -0.0372524 0.0319944 0.0777696 -0.0361867 0.0312433 0.0774219 
-0.0352471 0.0304699 0.0770137 -0.0345068 0.0296613 0.0765101 -0.033856 0.02883 0.0759564 
-0.0333245 0.0279684 0.0753359 -0.0328591 0.027091 0.0746824 -0.0324684 0.026196 0.0739918 
-0.0866655 0.07866 0.126382 -0.101416 0.0714683 0.117096 -0.102597 0.063257 0.108084 
-0.103303 0.0551972 0.0992939 -0.09674 0.0494618 0.0939134 -0.090039 0.0439741 0.0888238 
-0.0821213 0.0406664 0.0862941 -0.0743819 0.0375778 0.0839913 -0.0677126 0.0358039 0.0830493 
-0.0613596 0.0341785 0.0822405 -0.0564119 0.0332129 0.0820232 -0.0517995 0.0323272 0.0818557 
-0.0483453 0.0317174 0.0818603 -0.0451893 0.0311347 0.0818522 -0.0428596 0.0306264 0.0818091 
-0.0407703 0.0301098 0.0817141 -0.039226 0.0295742 0.0815012 -0.0378613 0.029011 0.0812185 
-0.0368345 0.028396 0.0808047 -0.0359335 0.0277475 0.0803213 -0.035231 0.0270463 0.0797284 
-0.0346133 0.0263158 0.0790791 -0.0341085 0.0255462 0.0783547 -0.0336628 0.0247582 0.0775937 
-0.0332839 0.0239494 0.0767915 -0.0337491 0.0490875 0.0426866 -0.0334428 0.0486258 0.0399966 
-0.0326187 0.0481279 0.0375462 -0.0317667 0.0476256 0.0351176 -0.0304878 0.0470557 0.0330262 
-0.0291714 0.0464761 0.0309806 -0.0275258 0.0458107 0.0293387 -0.0258418 0.0451298 0.0277708 
-0.0239276 0.0443556 0.0266469 -0.0219836 0.0435605 0.0256268 -0.0199069 0.0426728 0.0250678 
-0.0178186 0.0417599 0.0246405 -0.0156898 0.0407602 0.0246683 -0.0135766 0.0397325 0.0248499 
-0.0115061 0.0386272 0.0254572 -0.00948516 0.0374924 0.0262302 -0.00757637 0.0362911 0.0273787 
-0.00575463 0.0350605 0.0286921 -0.00409677 0.0337748 0.030316 -0.00256401 0.0324613 0.0320917 
-0.00122877 0.031104 0.0341068 -5.57945e-05 0.0297216 0.0362507 0.000900807 0.0283058 0.0385662 
0.00165804 0.0268687 0.0409798 0.00218989 0.0254077 0.0435045 -0.0342075 0.0498199 0.042981 
-0.0339077 0.0493594 0.0403979 -0.0331115 0.0488672 0.0380414 -0.0322884 0.0483707 0.0357056 
-0.0310536 0.0478071 0.0336879 -0.0297825 0.0472334 0.0317135 -0.0281915 0.046571 0.0301207 
-0.026563 0.0458921 0.0285981 -0.0247092 0.045114 0.0274964 -0.0228259 0.0443132 0.0264934 
-0.0208114 0.043411 0.0259291 -0.0187848 0.0424807 0.0254904 -0.0167168 0.0414529 0.0254855 
-0.0146633 0.0403929 0.0256277 -0.0126499 0.0392436 0.0261766 -0.0106841 0.0380599 0.0268839 
-0.00882665 0.0367982 0.0279501 -0.00705379 0.0355021 0.0291739 -0.00544024 0.0341412 0.0306943 
-0.00394874 0.0327483 0.0323594 -0.00264997 0.0313048 0.0342527 -0.00150987 0.0298339 0.0362678 
-0.00058134 0.0283262 0.0384453 0.000152032 0.0267978 0.0407141 0.000664786 0.0252459 0.043086 
-0.034681 0.0507321 0.0432937 -0.0343833 0.0502576 0.0408236 -0.0336128 0.0497567 0.038569 
-0.0328165 0.0492515 0.0363341 -0.0316255 0.0486811 0.0343994 -0.0303994 0.0481004 0.0325055 
-0.0288644 0.0474302 0.0309714 -0.027293 0.0467429 0.0295035 -0.0255027 0.0459532 0.0284328 
-0.0236834 0.0451394 0.0274554 -0.0217358 0.0442186 0.0268924 -0.0197761 0.0432675 0.0264481 
-0.0177751 0.0422112 0.026414 -0.0157878 0.0411195 0.0265189 -0.0138383 0.0399296 0.0270086 
-0.0119348 0.0387013 0.027648 -0.0101354 0.037386 0.0286267 -0.0084178 0.0360323 0.0297543 
-0.00685403 0.0346062 0.0311622 -0.00540838 0.0331449 0.0327065 -0.00414925 0.0316278 0.0344663 
-0.0030439 0.0300817 0.0363408 -0.0021436 0.0284969 0.0383681 -0.00143266 0.0268925 0.0404805 
-0.000935757 0.0252659 0.0426892 -0.0351677 0.0518034 0.0436227 -0.0348682 0.0513015 0.0412709 
-0.0341215 0.0507789 0.0391254 -0.0333503 0.0502523 0.0369984 -0.0322026 0.0496634 0.0351549 
-0.0310213 0.0490645 0.0333498 -0.0295436 0.0483769 0.0318829 -0.0280307 0.047672 0.0304781 
-0.0263066 0.0468638 0.0294462 -0.0245544 0.0460307 0.0285017 -0.0226779 0.0450876 0.0279459 
-0.0207896 0.0441127 0.0275013 -0.0188611 0.0430276 0.027441 -0.0169456 0.0419046 0.0275107 
-0.0150664 0.040677 0.0279403 -0.0132312 0.039408 0.0285098 -0.011496 0.0380453 0.0293964 
-0.00983919 0.036641 0.0304219 -0.00833004 0.0351585 0.0317092 -0.00693429 0.0336384 0.0331239 
-0.00571759 0.0320587 0.0347399 -0.00464865 0.0304494 0.0364631 -0.00377674 0.0288005 0.0383294 
-0.00308696 0.0271336 0.0402755 -0.00260304 0.0254466 0.0423116 -0.0357023 0.0530734 0.0440246 
-0.0353967 0.0525283 0.041792 -0.0346709 0.0519672 0.0397593 -0.0339218 0.0514023 0.0377442 
-0.0328156 0.0507783 0.0359978 -0.0316772 0.0501445 0.0342874 -0.0302553 0.0494249 0.0328948 
-0.0287997 0.0486884 0.0315603 -0.0271412 0.0478505 0.0305745 -0.0254558 0.046988 0.0296701 
-0.0236512 0.0460162 0.0291277 -0.0218354 0.0450121 0.0286886 -0.0199814 0.0438967 0.0286062 
-0.0181402 0.0427424 0.0286439 -0.0163342 0.0414808 0.0290146 -0.0145705 0.0401761 0.0295144 
-0.0129028 0.0387741 0.0303066 -0.01131 0.0373288 0.0312271 -0.00985823 0.035802 0.0323887 
-0.00851443 0.0342361 0.0336681 -0.00734117 0.0326087 0.0351336 -0.00630863 0.0309516 0.0366989 
-0.00546373 0.029255 0.0383973 -0.00479251 0.0275423 0.0401709 -0.00431763 0.0258117 0.0420294 
-0.0362728 0.0544924 0.0444811 -0.0359577 0.0538923 0.0423684 -0.0352507 0.05328 0.0404514 
-0.0345218 0.052664 0.038551 -0.0334555 0.0519924 0.0369061 -0.0323585 0.0513115 0.035295 
-0.0309914 0.0505489 0.0339821 -0.029592 0.0497701 0.0327233 -0.0279988 0.0488943 0.031789 
-0.0263801 0.0479948 0.0309301 -0.0246479 0.0469893 0.0304059 -0.0229054 0.0459521 0.0299766 
-0.0211275 0.0448053 0.029875 -0.0193623 0.0436197 0.0298834 -0.0176319 0.0423267 0.030196 
-0.0159421 0.0409902 0.030626 -0.0143444 0.0395551 0.0313224 -0.012818 0.038076 0.0321353 
-0.0114255 0.0365138 0.0331676 -0.0101352 0.0349121 0.0343076 -0.00900618 0.033248 0.0356174 
-0.00801003 0.0315548 0.0370197 -0.0071911 0.0298227 0.0385452 -0.00653651 0.0280767 0.0401417 
-0.00606769 0.0263151 0.0418186 -0.036926 0.0561247 0.0450643 -0.0365996 0.0554542 0.0430681 
-0.0359099 0.0547707 0.0412662 -0.0351995 0.0540836 0.0394803 -0.0341702 0.053343 0.037939 
-0.0331116 0.0525937 0.0364296 -0.0317948 0.0517685 0.0352005 -0.0304471 0.0509284 0.0340217 
-0.028914 0.0499997 0.0331444 -0.0273568 0.0490489 0.0323363 -0.0256922 0.0480006 0.0318359 
-0.0240184 0.0469226 0.0314219 -0.0223131 0.0457418 0.0313064 -0.0206205 0.0445237 0.03129 
-0.0189634 0.0432028 0.0315484 -0.0173456 0.0418395 0.0319121 -0.0158168 0.0403802 0.0325149 
-0.0143557 0.0388775 0.0332221 -0.013022 0.037293 0.0341259 -0.0117843 0.0356695 0.0351268 
-0.0106985 0.0339846 0.036281 -0.00973726 0.0322715 0.0375201 -0.00894232 0.0305207 0.0388723 
-0.00830175 0.0287578 0.0402922 -0.00783568 0.0269814 0.0417885 -0.0376314 0.057892 0.0457277 
-0.0372926 0.0571414 0.0438458 -0.0366193 0.056374 0.0421588 -0.0359264 0.0556032 0.0404871 
-0.0349323 0.0547799 0.0390508 -0.0339101 0.0539487 0.0376445 -0.0326408 0.0530485 0.036502 
-0.031342 0.0521353 0.0354059 -0.0298657 0.0511439 0.034589 -0.0283666 0.0501331 0.0338351 
-0.0267666 0.0490362 0.0333621 -0.0251588 0.0479124 0.0329669 -0.0235236 0.0466958 0.0328406 
-0.0219017 0.0454447 0.0328026 -0.0203165 0.0440981 0.0330091 -0.0187694 0.0427112 0.0333087 
-0.0173088 0.0412332 0.0338194 -0.0159124 0.0397134 0.034422 -0.0146368 0.0381148 0.0351977 
-0.0134513 0.0364786 0.0360599 -0.012408 0.0347828 0.0370583 -0.0114808 0.03306 0.0381341 
-0.0107086 0.0313011 0.039313 -0.0100804 0.0295319 0.0405565 -0.00961502 0.0277509 0.0418727 
-0.0384543 0.0598958 0.0465687 -0.0381092 0.0590491 0.0447939 -0.0374556 0.058172 0.0432175 
-0.0367831 0.0572913 0.0416559 -0.0358214 0.0563555 0.0403232 -0.0348324 0.055413 0.0390188 
-0.0336023 0.0544106 0.0379639 -0.0323435 0.0533978 0.036952 -0.0309123 0.0523231 0.0361987 
-0.0294597 0.0512331 0.0355027 -0.0279119 0.050075 0.0350621 -0.0263578 0.0488947 0.034691 
-0.0247817 0.0476379 0.0345602 -0.02322 0.0463512 0.034507 -0.0216979 0.0449816 0.0346686 
-0.0202136 0.0435756 0.0349112 -0.0188147 0.0420874 0.035337 -0.0174773 0.0405604 0.0358423 
-0.0162556 0.0389603 0.0364975 -0.0151185 0.0373247 0.0372281 -0.0141149 0.0356331 0.038078 
-0.0132193 0.0339158 0.0389976 -0.0124678 0.0321645 0.0400103 -0.0118501 0.0304038 0.0410842 
-0.0113837 0.0286327 0.0422273 -0.0393397 0.0620253 0.0475039 -0.0389915 0.0610741 0.0458326 
-0.0383592 0.0600734 0.0443644 -0.0377086 0.0590688 0.0429107 -0.0367781 0.0580048 0.0416808 
-0.0358205 0.0569352 0.0404777 -0.0346251 0.0558161 0.039511 -0.0334016 0.0546899 0.0385841 
-0.0320094 0.0535209 0.0378961 -0.030597 0.0523414 0.03726 -0.0290948 0.0511155 0.0368545 
-0.027588 0.0498731 0.0365103 -0.0260651 0.0485737 0.0363782 -0.024558 0.0472499 0.0363132 
-0.0230944 0.0458588 0.0364338 -0.0216685 0.0444362 0.036623 -0.0203281 0.0429423 0.0369679 
-0.0190467 0.0414134 0.0373799 -0.0178766 0.0398184 0.0379182 -0.0167858 0.0381907 0.0385213 
-0.0158204 0.036511 0.0392265 -0.0149551 0.0348074 0.0399937 -0.0142233 0.0330719 0.0408439 
-0.0136151 0.0313279 0.0417519 -0.0131467 0.0295742 0.0427254 -0.04038 0.0644434 0.0486678 
-0.0400523 0.0633676 0.04709 -0.0394546 0.0622033 0.045722 -0.0388384 0.0610345 0.0443684 
-0.037937 0.0597966 0.0432358 -0.0370076 0.0585549 0.0421289 -0.0358323 0.0572793 0.0412481 
-0.0346284 0.0560013 0.0404044 -0.0332537 0.0547096 0.039783 -0.0318597 0.0534145 0.0392085 
-0.0303804 0.0521045 0.0388425 -0.0288987 0.050786 0.0385304 -0.0274087 0.049438 0.0384044 
-0.0259369 0.0480734 0.0383355 -0.0245155 0.0466625 0.0384248 -0.0231332 0.0452268 0.0385711 
-0.0218394 0.0437345 0.0388468 -0.0206037 0.0422122 0.0391777 -0.0194774 0.0406333 0.0396126 
-0.0184267 0.0390249 0.0401014 -0.0174951 0.0373699 0.0406754 -0.0166568 0.0356926 0.0413036 
-0.015943 0.0339857 0.0420042 -0.0153436 0.0322704 0.0427588 -0.0148737 0.0305457 0.0435743 
-0.0414887 0.066989 0.0499325 -0.0411917 0.0657795 0.0484438 -0.0406347 0.064434 0.0471726 
-0.0400583 0.0630832 0.0459157 -0.0391851 0.0616513 0.0448779 -0.0382825 0.0602177 0.0438649 
-0.0371207 0.0587678 0.043069 -0.0359297 0.0573213 0.0423077 -0.0345629 0.0558942 0.0417535 
-0.0331777 0.054472 0.0412414 -0.0317113 0.0530707 0.040917 -0.0302449 0.05167 0.0406391 
-0.0287788 0.0502708 0.0405224 -0.0273339 0.0488636 0.0404531 -0.0259475 0.0474338 0.0405154 
-0.0246022 0.0459865 0.0406235 -0.0233498 0.0444991 0.0408352 -0.0221552 0.0429872 0.0410905 
-0.0210694 0.0414291 0.0414275 -0.0200558 0.0398451 0.041808 -0.0191562 0.0382203 0.0422568 
-0.0183435 0.0365749 0.0427519 -0.017647 0.0349022 0.0433087 -0.0170561 0.0332211 0.0439152 
-0.0165848 0.0315304 0.044578 -0.042802 0.0699325 0.0514879 -0.042595 0.068553 0.0500756 
-0.0421094 0.0669549 0.0488878 -0.0416017 0.0653505 0.0477143 -0.0407537 0.063649 0.0467604 
-0.0398722 0.0619494 0.0458306 -0.0386964 0.060266 0.0451131 -0.0374891 0.0585945 0.0444283 
-0.036092 0.0569947 0.0439396 -0.0346777 0.0554112 0.0434893 -0.0331864 0.0539 0.0432097 
-0.031699 0.0524012 0.0429704 -0.0302251 0.0509452 0.0428706 -0.0287775 0.0494918 0.0428097 