# vtk DataFile Version 2.0
vtk output
ASCII
DATASET RECTILINEAR_GRID
DIMENSIONS 25 25 25
X_COORDINATES 25 float
5 5.20833 5.41667 5.625 5.83333 6.04167 6.25 6.45833 6.66667 
6.875 7.08333 7.29167 7.5 7.70833 7.91667 8.125 8.33333 8.54167 
8.75 8.95833 9.16667 9.375 9.58333 9.79167 10 
Y_COORDINATES 25 float
-5 -4.79167 -4.58333 -4.375 -4.16667 -3.95833 -3.75 -3.54167 -3.33333 
-3.125 -2.91667 -2.70833 -2.5 -2.29167 -2.08333 -1.875 -1.66667 -1.45833 
-1.25 -1.04167 -0.833333 -0.625 -0.416667 -0.208333 0 
Z_COORDINATES 25 float
0 0.208333 0.416667 0.625 0.833333 1.04167 1.25 1.45833 1.66667 
1.875 2.08333 2.29167 2.5 2.70833 2.91667 3.125 3.33333 3.54167 
3.75 3.95833 4.16667 4.375 4.58333 4.79167 5 
POINT_DATA 15625
VECTORS grad float
0.0667279 0.0862432 -0.0183895 0.0703569 0.0871796 -0.0197203 0.0727679 0.0874773 -0.0206851 
0.0732089 0.0869849 -0.0205663 0.0720446 0.0858489 -0.0195647 0.0680291 0.0837979 -0.01671 
0.0620472 0.0811159 -0.0125772 0.0522334 0.0773317 -0.00606227 0.0401945 0.0729076 0.00183581 
0.0236139 0.0671032 0.0119302 0.00483129 0.0606295 0.0230894 -0.0180549 0.0524933 0.0351354 
-0.0425825 0.043692 0.0475362 -0.0686158 0.0331948 0.0586528 -0.0951375 0.0221475 0.069353 
-0.118513 0.00998951 0.0769918 -0.141082 -0.00245331 0.0838457 -0.15583 -0.0145382 0.0872718 
-0.169051 -0.0265534 0.0900291 -0.172417 -0.0360718 0.089876 -0.174409 -0.0452418 0.0893167 
-0.168167 -0.0500295 0.0863317 -0.161194 -0.0544277 0.0831311 -0.155907 -0.0539486 0.0779888 
-0.150691 -0.0532619 0.0727638 0.0677932 0.0793786 -0.0235702 0.0707331 0.0800405 -0.0251409 
0.0724091 0.0800326 -0.0262458 0.0720712 0.0791865 -0.0261451 0.0700923 0.0776575 -0.0250619 
0.065203 0.0751204 -0.0219907 0.0583066 0.0718882 -0.0175483 0.0474936 0.0674049 -0.0105609 
0.0344063 0.062195 -0.0020956 0.0166968 0.0554282 0.00878665 -0.00325373 0.0479065 0.0208408 
-0.0272955 0.0385908 0.0340773 -0.0529737 0.0285575 0.0477868 -0.079918 0.0168184 0.0605485 
-0.107273 0.00452594 0.0730027 -0.130894 -0.00873889 0.0826528 -0.153556 -0.022253 0.0915838 
-0.167472 -0.0350908 0.097056 -0.179681 -0.0477966 0.101853 -0.181062 -0.0573946 0.103218 
-0.180933 -0.0665591 0.104104 -0.172068 -0.0704385 0.10158 -0.162427 -0.0738482 0.0987544 
-0.155723 -0.0715439 0.0929337 -0.149143 -0.0689965 0.0869855 0.0686564 0.0729821 -0.0284403 
0.0708818 0.0734643 -0.0303224 0.0718014 0.0732668 -0.0316768 0.070653 0.0722173 -0.0317608 
0.0678196 0.0704736 -0.0308097 0.0619952 0.0676795 -0.0278033 0.054108 0.0641608 -0.0233796 
0.0421966 0.0593011 -0.016307 0.0279485 0.0536628 -0.00769623 0.0089901 0.0463322 0.0035467 
-0.012252 0.0381811 0.0160658 -0.0375533 0.0280853 0.0301839 -0.0644782 0.0172116 0.0449416 
-0.0923857 0.00450911 0.0593858 -0.120612 -0.00878662 0.0737283 -0.144439 -0.0231107 0.0859252 
-0.167137 -0.0376985 0.0975718 -0.18001 -0.0514902 0.106009 -0.190966 -0.0651267 0.11382 
-0.189911 -0.0751236 0.117595 -0.18718 -0.0846127 0.120808 -0.175124 -0.0878165 0.119165 
-0.162239 -0.0904615 0.11709 -0.153828 -0.0864213 0.110437 -0.145607 -0.0820965 0.103589 
0.0693407 0.0669996 -0.0330356 0.0708294 0.067386 -0.0352922 0.0709736 0.0671014 -0.036993 
0.0689868 0.0659815 -0.0374093 0.0652637 0.0641811 -0.036779 0.0584497 0.0613323 -0.0340865 
0.0495042 0.0577604 -0.0299718 0.0364067 0.0528101 -0.0231566 0.0208982 0.0470594 -0.0147735 
0.000584832 0.0395176 -0.00354782 -0.0220582 0.0311074 0.00905602 -0.048711 0.0205847 0.0237824 
-0.0769676 0.00921716 0.0393579 -0.105884 -0.00420235 0.0555178 -0.135016 -0.0182874 0.0718673 
-0.159015 -0.0336288 0.0870847 -0.181697 -0.0492922 0.102012 -0.193342 -0.0642159 0.114226 
-0.202832 -0.0789952 0.125912 -0.198942 -0.0896735 0.132888 -0.193184 -0.0997794 0.139208 
-0.177432 -0.102513 0.138815 -0.160792 -0.104592 0.137826 -0.15042 -0.0988943 0.130203 
-0.140314 -0.0928661 0.122299 0.0700324 0.0619493 -0.0375073 0.0708212 0.0623637 -0.0402409 
0.0702404 0.0621451 -0.0424293 0.0674721 0.0611567 -0.0433779 0.0629216 0.0595411 -0.0433164 
0.0551734 0.0569551 -0.0412565 0.0452199 0.0536999 -0.0378183 0.030957 0.0491294 -0.031688 
0.0141917 0.0437951 -0.0239944 -0.00753279 0.0366661 -0.0132432 -0.0316617 0.0286669 -0.00100952 
-0.0598326 0.0184218 0.0140124 -0.0896204 0.00727821 0.0301497 -0.119816 -0.00621011 0.0480899 
-0.150143 -0.0204589 0.0666148 -0.174585 -0.0363599 0.0854714 -0.197516 -0.0526846 0.104413 
-0.207972 -0.0685591 0.12153 -0.215993 -0.0843459 0.138291 -0.208864 -0.0958128 0.149622 
-0.199621 -0.106677 0.160196 -0.179489 -0.109262 0.161502 -0.15839 -0.111111 0.161984 
-0.145689 -0.104243 0.152975 -0.133346 -0.097004 0.143562 0.0707299 0.0575982 -0.0418861 
0.0708461 0.0581333 -0.0451737 0.0695782 0.0580956 -0.0479556 0.0660712 0.0573901 -0.0495866 
0.0607399 0.0561404 -0.0502798 0.0520989 0.0540554 -0.0490915 0.0411753 0.0513943 -0.0466057 
0.0257625 0.0475564 -0.0414806 0.00774289 0.0430351 -0.034823 -0.0154347 0.036787 -0.0248892 
-0.041113 0.0297015 -0.0133668 -0.0709272 0.020262 0.00171609 -0.102396 0.00988092 0.0182233 
-0.134071 -0.00319008 0.037992 -0.165814 -0.0171335 0.0588187 -0.1909 -0.033251 0.0817785 
-0.214279 -0.0499259 0.105285 -0.223577 -0.0666155 0.128147 -0.230127 -0.0833081 0.150884 
-0.219456 -0.0956443 0.167437 -0.206383 -0.107373 0.183126 -0.181358 -0.11005 0.186466 
-0.155271 -0.111924 0.188709 -0.139968 -0.104249 0.177999 -0.125123 -0.0961683 0.166739 
0.0716528 0.0543039 -0.0463031 0.0712063 0.0550466 -0.0502534 0.0693858 0.0553003 -0.0537734 
0.0653032 0.0550256 -0.0562866 0.0593774 0.0543206 -0.0579793 0.0500497 0.0529801 -0.0579804 
0.0383757 0.0512011 -0.0568148 0.0220151 0.048486 -0.0531368 0.00293316 0.0452271 -0.048 
-0.0215944 0.0404422 -0.0393928 -0.0487622 0.0349175 -0.029103 -0.080316 0.0270688 -0.0143818 
-0.113624 0.0182906 0.00211187 -0.147097 0.00660566 0.0235745 -0.180624 -0.006022 0.0466487 
-0.206795 -0.0212286 0.0740219 -0.231079 -0.0370965 0.102497 -0.23956 -0.0534495 0.131917 
-0.244956 -0.0698972 0.161522 -0.230742 -0.0823426 0.184298 -0.21379 -0.0942295 0.206121 
-0.183602 -0.0971466 0.211874 -0.152237 -0.0992662 0.216199 -0.134173 -0.0918942 0.20337 
-0.116675 -0.0841182 0.189811 0.0727185 0.0516789 -0.0507443 0.0717789 0.0526844 -0.0554261 
0.069491 0.0532992 -0.0597758 0.064936 0.0535492 -0.0632977 0.0585337 0.0535022 -0.0661451 
0.0486497 0.0530602 -0.0675367 0.0363645 0.0523458 -0.0679243 0.0191842 0.0510004 -0.0659733 
-0.000838492 0.0492886 -0.0626644 -0.0266508 0.046336 -0.0557064 -0.0552701 0.0427818 -0.0469791 
-0.0886242 0.0370212 -0.0328874 -0.123872 0.0303779 -0.01665 -0.159344 0.0206927 0.00642108 
-0.194888 0.0100208 0.0317086 -0.222422 -0.00356106 0.0636916 -0.247903 -0.017889 0.0973913 
-0.255782 -0.0331759 0.133884 -0.260227 -0.04865 0.170922 -0.242466 -0.0607232 0.200555 
-0.221606 -0.0723218 0.229156 -0.186084 -0.0755712 0.237563 -0.149258 -0.0780783 0.244174 
-0.128333 -0.0717109 0.228959 -0.108083 -0.0649658 0.212815 0.0741062 0.0499001 -0.0552541 
0.0728268 0.0511608 -0.0607424 0.070253 0.0521301 -0.0660227 0.0654508 0.0528966 -0.0706967 
0.0588326 0.0534978 -0.0748769 0.0487037 0.0539516 -0.077906 0.0361535 0.0543039 -0.0801413 
0.0185255 0.0543714 -0.0803156 -0.00205105 0.0542736 -0.079293 -0.0288062 0.0533364 -0.0745546 
-0.058557 0.0519921 -0.0680145 -0.0935061 0.0487895 -0.0552238 -0.130535 0.0448434 -0.0399328 
-0.167962 0.0380829 -0.0159203 -0.205519 0.0304096 0.010921 -0.234537 0.0199512 0.0468171 
-0.261366 0.00877864 0.0850348 -0.269069 -0.00351256 0.127847 -0.27304 -0.0160221 0.171556 
-0.252616 -0.026111 0.207539 -0.228788 -0.0358621 0.242443 -0.189083 -0.0392608 0.253596 
-0.147967 -0.0420947 0.262637 -0.124787 -0.0381457 0.245792 -0.102371 -0.033908 0.227847 
0.0756651 0.0485708 -0.0598004 0.0741272 0.0500826 -0.0661349 0.0713639 0.0514031 -0.0723994 
0.066434 0.0526816 -0.0783019 0.0597386 0.0539259 -0.0839093 0.0495302 0.0552741 -0.0887072 
0.0368989 0.0566941 -0.0929468 0.0190207 0.0581974 -0.0954578 -0.0019041 0.0597492 -0.0969651 
-0.0294205 0.0609246 -0.0947494 -0.0601327 0.0619175 -0.0907285 -0.0965677 0.0615225 -0.0795954 
-0.135292 0.0605723 -0.0656174 -0.174653 0.057228 -0.0410177 -0.21422 0.0531073 -0.0129731 
-0.244786 0.0465684 0.0264659 -0.273044 0.0394095 0.0688265 -0.280796 0.0311391 0.117558 
-0.284548 0.0226518 0.167534 -0.26193 0.0154037 0.209595 -0.235633 0.00832846 0.250551 
-0.192358 0.00487767 0.264499 -0.147573 0.00174909 0.276045 -0.122462 0.00252868 0.257974 
-0.0981873 0.00347459 0.238643 0.0774375 0.047683 -0.0642545 0.0757754 0.0493314 -0.0714268 
0.0729741 0.0508628 -0.0786734 0.0681058 0.052463 -0.0858109 0.0615533 0.0541194 -0.0928594 
0.0515508 0.0560584 -0.0994666 0.039169 0.0581924 -0.105769 0.0214593 0.0607107 -0.110758 
0.000655893 0.0634521 -0.114985 -0.0270682 0.0662985 -0.115658 -0.0581478 0.0691958 -0.114608 
-0.0954177 0.0713882 -0.105848 -0.135164 0.0732987 -0.0940042 -0.175763 0.0736517 -0.0700154 
-0.216639 0.0734997 -0.0420875 -0.248222 0.0717437 -0.00109831 -0.277421 0.0695765 0.0432399 
-0.285495 0.0665409 0.0948949 -0.289447 0.0633359 0.147978 -0.26644 0.059991 0.193175 
-0.23967 0.0566266 0.237271 -0.195648 0.0534752 0.253619 -0.150092 0.0503428 0.267499 
-0.124567 0.047539 0.250833 -0.0998952 0.0447492 0.232868 0.0793041 0.0469899 -0.0686679 
0.0775769 0.0487243 -0.0766743 0.0748045 0.0504048 -0.0849022 0.0700814 0.0522428 -0.0932776 
0.0637688 0.0542093 -0.101773 0.0540982 0.0566052 -0.110207 0.0421117 0.0592972 -0.1186 
0.0247552 0.0626447 -0.126129 0.00428046 0.0663728 -0.133158 -0.0234072 0.0706954 -0.136881 
-0.0545921 0.0753062 -0.139001 -0.0924095 0.0799889 -0.13293 -0.13288 0.0847005 -0.123583 
-0.174412 0.0888749 -0.100734 -0.216288 0.0928751 -0.0735051 -0.248652 0.096283 -0.0318449 
-0.278577 0.099539 0.0135156 -0.287093 0.102274 0.0667718 -0.291431 0.104907 0.121569 
-0.268829 0.105934 0.168604 -0.242468 0.106737 0.214556 -0.198944 0.10404 0.233128 
-0.153896 0.101032 0.249267 -0.128628 0.0944622 0.235167 -0.104202 0.0877409 0.219781 
0.0810976 0.0463497 -0.0726555 0.0793629 0.047999 -0.0813683 0.0766716 0.0496181 -0.0904279 
0.0721544 0.0514114 -0.0998467 0.0661492 0.0533467 -0.109558 0.0569251 0.055745 -0.119522 
0.045481 0.0584626 -0.12966 0.028754 0.0619643 -0.139337 0.00895952 0.0659213 -0.148746 
-0.0181029 0.0708588 -0.155192 -0.048689 0.0762717 -0.160201 -0.0860827 0.0825771 -0.156978 
-0.126199 0.0892395 -0.150463 -0.167505 0.0965546 -0.129939 -0.209197 0.104081 -0.104871 
-0.241527 0.112077 -0.0650178 -0.271456 0.120193 -0.0213729 -0.280695 0.127979 0.0300499 
-0.285897 0.135701 0.0829906 -0.265588 0.140467 0.128798 -0.241719 0.144821 0.17361 
-0.201512 0.142822 0.1938 -0.159852 0.140258 0.211801 -0.136335 0.131224 0.202394 
-0.113589 0.121915 0.191821 0.0828647 0.0457285 -0.0764892 0.0811432 0.047231 -0.0858623 
0.0785521 0.0487127 -0.0956996 0.0742625 0.0503592 -0.106092 0.0685891 0.0521401 -0.116936 
0.0598529 0.0543767 -0.128322 0.0490043 0.0569276 -0.140082 0.0330067 0.0603398 -0.151764 
0.0140193 0.0642521 -0.1634 -0.0122051 0.0694935 -0.172451 -0.0419384 0.0753793 -0.180248 
-0.0785576 0.082994 -0.179931 -0.117931 0.0913003 -0.176368 -0.158593 0.10151 -0.158597 
-0.199673 0.112338 -0.136219 -0.231674 0.124713 -0.0990669 -0.261347 0.137486 -0.0581263 
-0.271411 0.150063 -0.00977707 -0.277649 0.162603 0.0400179 -0.260314 0.17088 0.0834901 
-0.239689 0.178562 0.12608 -0.203815 0.177349 0.147668 -0.166586 0.175344 0.167389 
-0.145358 0.164317 0.163444 -0.124811 0.152906 0.158491 0.0842305 0.0449559 -0.0794943 
0.082494 0.0461699 -0.0892852 0.0799495 0.0473424 -0.0996125 0.075812 0.0486218 -0.110603 
0.0703764 0.0499881 -0.122133 0.0620481 0.0517276 -0.13435 0.0517248 0.0537245 -0.147039 
0.03651 0.0565491 -0.159853 0.0184547 0.0598543 -0.172739 -0.00650939 0.0646854 -0.183364 
-0.0348233 0.0702563 -0.192893 -0.0697528 0.0781958 -0.194873 -0.107328 0.0870828 -0.193833 
-0.146268 0.0988611 -0.179419 -0.185649 0.111577 -0.160668 -0.216769 0.126581 -0.127984 
-0.245771 0.142171 -0.0917275 -0.257032 0.157497 -0.0483092 -0.264832 0.172772 -0.00349319 
-0.251504 0.182996 0.0365567 -0.235227 0.192515 0.0759416 -0.20485 0.192161 0.0984193 
-0.17322 0.190929 0.119394 -0.154857 0.17977 0.120704 -0.137059 0.168188 0.121177 
0.0854802 0.0441395 -0.0822597 0.0837205 0.0450239 -0.0923982 0.0812072 0.0458376 -0.103132 
0.0771997 0.0466859 -0.114612 0.0719748 0.0475623 -0.126699 0.0640313 0.0487076 -0.139575 
0.054213 0.0500385 -0.152995 0.0397962 0.0521313 -0.166688 0.0227094 0.0546666 -0.180539 
-0.00087219 0.0588807 -0.19244 -0.0276027 0.0639087 -0.203395 -0.0605775 0.071888 -0.207496 
-0.09605 0.0810479 -0.208854 -0.132954 0.0940103 -0.197972 -0.170323 0.108206 -0.183119 
-0.200403 0.125332 -0.155415 -0.228613 0.143208 -0.124416 -0.241179 0.160691 -0.0864665 
-0.250694 0.178097 -0.0471602 -0.24167 0.189815 -0.0108473 -0.23006 0.20074 0.0250479 
-0.205517 0.201266 0.0482681 -0.179825 0.200868 0.0703614 -0.164494 0.190116 0.0768672 
-0.149604 0.178924 0.0827097 0.0861206 0.0431939 -0.0838705 0.0842674 0.0437035 -0.0940498 
0.0816858 0.0441068 -0.104832 0.07768 0.0444703 -0.116357 0.0725137 0.0448012 -0.128486 
0.0648016 0.045296 -0.141378 0.0553335 0.0459039 -0.154797 0.0416385 0.0471814 -0.16849 
0.0254889 0.0488477 -0.182343 0.00345139 0.0522099 -0.194507 -0.0214408 0.0563943 -0.205852 
-0.0520018 0.0637501 -0.211297 -0.0848302 0.0723744 -0.214381 -0.11919 0.0851526 -0.2069 
-0.154046 0.099278 -0.195993 -0.182907 0.116547 -0.173612 -0.21023 0.134621 -0.148289 
-0.224224 0.152266 -0.115914 -0.235618 0.169828 -0.0821632 -0.230831 0.181801 -0.0493863 
-0.223786 0.192994 -0.0167453 -0.204701 0.194388 0.00673934 -0.184545 0.194911 0.0294099 
-0.172022 0.185688 0.0396584 -0.159824 0.17605 0.0493783 0.0866238 0.0422192 -0.0852215 
0.0846613 0.0423438 -0.0953726 0.081989 0.0423252 -0.106123 0.077956 0.0421917 -0.117593 
0.0728143 0.0419647 -0.129648 0.0652989 0.0417964 -0.142412 0.0561464 0.0416685 -0.155665 
0.0431558 0.0421118 -0.169161 0.0279365 0.0428867 -0.182798 0.00747941 0.0453441 -0.194997 
-0.0155171 0.0486173 -0.206499 -0.0435609 0.0552003 -0.213113 -0.0736235 0.0631072 -0.217771 
-0.105323 0.0753932 -0.213663 -0.137554 0.0890996 -0.206712 -0.165156 0.106066 -0.189731 
-0.191572 0.123868 -0.170177 -0.207021 0.141228 -0.143402 -0.220332 0.158501 -0.115217 
-0.219766 0.170449 -0.0859306 -0.217263 0.181653 -0.0564908 -0.203551 0.183913 -0.0328493 
-0.188842 0.185378 -0.00972345 -0.179076 0.177936 0.00394081 -0.16952 0.170115 0.0172025 
0.0865155 0.0412821 -0.0852904 0.084386 0.0410863 -0.0951121 0.0815462 0.0407242 -0.10549 
0.0773912 0.0402009 -0.116512 0.0721645 0.0395463 -0.12806 0.0647281 0.0388819 -0.140213 
0.0557678 0.0382106 -0.152784 0.0433618 0.0380181 -0.16554 0.028955 0.0381036 -0.178403 
0.00996005 0.0397372 -0.190081 -0.0112594 0.0421214 -0.201184 -0.0369243 0.0476019 -0.208368 
-0.0643672 0.0543208 -0.213984 -0.0935514 0.0651489 -0.212467 -0.1233 0.0773098 -0.208637 
-0.149664 0.0925803 -0.196064 -0.175159 0.108648 -0.181249 -0.191713 0.124506 -0.159103 
-0.206523 0.140323 -0.135527 -0.209296 0.151636 -0.109276 -0.210388 0.162319 -0.0826518 
-0.200937 0.165359 -0.0594889 -0.190548 0.16772 -0.0366338 -0.182992 0.162298 -0.0211921 
-0.175557 0.156545 -0.00606588 0.0863053 0.0403513 -0.0851457 0.0839993 0.0398458 -0.0945878 
0.080979 0.0391532 -0.104535 0.0766861 0.038258 -0.115045 0.0713563 0.0371976 -0.126014 
0.0639794 0.0360649 -0.137476 0.0551906 0.0348824 -0.149279 0.0433492 0.0340872 -0.161204 
0.0297353 0.0335168 -0.173201 0.0121828 0.0343401 -0.184264 -0.0072794 0.035839 -0.194876 
-0.0305883 0.040162 -0.202529 -0.0554359 0.0456146 -0.209 -0.0821285 0.0548238 -0.209944 
-0.10942 0.0652514 -0.209095 -0.134547 0.0785939 -0.200766 -0.15912 0.0926836 -0.190518 
-0.176721 0.106837 -0.17284 -0.192962 0.121003 -0.153713 -0.198925 0.131579 -0.130422 
-0.203454 0.141653 -0.106549 -0.198079 0.145459 -0.0839703 -0.191823 0.148708 -0.0615069 
-0.186386 0.145346 -0.0445609 -0.180983 0.141702 -0.0278496 0.0856704 0.0396393 -0.0838379 
0.0831715 0.0389674 -0.092663 0.0799456 0.0381097 -0.101921 0.0754773 0.0370396 -0.111645 
0.0699966 0.0357966 -0.121747 0.0626033 0.0344468 -0.132238 0.0538908 0.0330232 -0.142996 
0.0424447 0.0318872 -0.153836 0.0294113 0.0309183 -0.164724 0.0129462 0.0310969 -0.174887 
-0.00518271 0.0318318 -0.184699 -0.0266914 0.0349295 -0.19224 -0.0495521 0.0389723 -0.198872 
-0.0742712 0.0462122 -0.201089 -0.0995931 0.054489 -0.201874 -0.123536 0.0654088 -0.196181 
-0.147126 0.0770062 -0.188827 -0.1651 0.0890513 -0.174347 -0.181978 0.101184 -0.158477 
-0.189906 0.110775 -0.137859 -0.196585 0.120013 -0.11658 -0.194022 0.124327 -0.0953843 
-0.190637 0.128203 -0.0741962 -0.18674 0.126559 -0.0572327 -0.182821 0.12468 -0.040449 
0.0849872 0.0389521 -0.0823979 0.0822936 0.0381301 -0.090579 0.0788593 0.037126 -0.0991183 
0.0742112 0.0359036 -0.108024 0.0685742 0.0345034 -0.117228 0.0611558 0.0329649 -0.126716 
0.052509 0.0313309 -0.136398 0.0414389 0.029884 -0.146124 0.0289617 0.0285457 -0.155875 
0.0135438 0.0280984 -0.165105 -0.00330003 0.0280832 -0.174083 -0.0230717 0.0299479 -0.181445 
-0.0440145 0.0325645 -0.18816 -0.066819 0.0377953 -0.191515 -0.0902274 0.0438739 -0.19378 
-0.112992 0.0523148 -0.190541 -0.135591 0.0613613 -0.185891 -0.153862 0.0712521 -0.174464 
-0.171288 0.0813078 -0.161714 -0.181041 0.0898875 -0.14374 -0.189723 0.0982614 -0.125036 
-0.189828 0.103054 -0.105313 -0.189171 0.107529 -0.0855009 -0.186748 0.107564 -0.068689 
-0.184251 0.107409 -0.0520047 0.0841828 0.0385763 -0.0801345 0.0813226 0.0377837 -0.0875337 
0.0777033 0.0368351 -0.0952111 0.0728804 0.035686 -0.103161 0.0670768 0.0343735 -0.111333 
0.0595704 0.0329038 -0.119701 0.0508894 0.0313257 -0.128204 0.0399787 0.0298232 -0.136717 
0.0277731 0.0283646 -0.145235 0.0129397 0.0275137 -0.153344 -0.00316772 0.0269574 -0.161254 
-0.0218758 0.027791 -0.167904 -0.0416241 0.0291805 -0.17405 -0.0631025 0.0326287 -0.177459 
-0.0851422 0.0367446 -0.17998 -0.106799 0.0429386 -0.177792 -0.128359 0.0496655 -0.174396 
-0.146286 0.0575139 -0.164957 -0.163504 0.0655812 -0.15434 -0.173966 0.0729933 -0.138786 
-0.183486 0.0803139 -0.122543 -0.185144 0.0851092 -0.104893 -0.186104 0.0896799 -0.0871192 
-0.184647 0.0907122 -0.0715205 -0.183088 0.091594 -0.0560143 0.0833705 0.0382207 -0.0778174 
0.0803456 0.0374693 -0.0844258 0.0765427 0.0365894 -0.0912318 0.0715453 0.0355283 -0.0982167 
0.0655746 0.0343196 -0.105347 0.0579759 0.0329355 -0.112588 0.0492544 0.0314305 -0.119905 
0.0384888 0.0298891 -0.127199 0.0265363 0.0283265 -0.134479 0.0122573 0.0270864 -0.141454 
-0.00314956 0.0260027 -0.148282 -0.020838 0.0258183 -0.154185 -0.039439 0.0259936 -0.159718 
-0.0596297 0.0276741 -0.16311 -0.0803361 0.0298426 -0.165807 -0.100891 0.033805 -0.164579 
-0.121407 0.0382272 -0.162343 -0.138948 0.0440405 -0.154823 -0.155909 0.0501253 -0.146273 
-0.167008 0.0563595 -0.133125 -0.17729 0.0626145 -0.119336 -0.180429 0.0673808 -0.103799 
-0.182933 0.0720148 -0.0881058 -0.182409 0.0740005 -0.0737895 -0.181755 0.0758735 -0.0595318 
0.0827866 0.0381365 -0.0751602 0.0796672 0.03761 -0.0809577 0.0757456 0.0370045 -0.0868811 
0.0706111 0.0362589 -0.0929055 0.0644883 0.035399 -0.0990121 0.0567445 0.0343586 -0.105159 
0.0478828 0.0331937 -0.111335 0.0370416 0.0318853 -0.117446 0.0250509 0.0304937 -0.123521 
0.0108846 0.0291618 -0.129316 -0.00433667 0.0278588 -0.134976 -0.0216069 0.0270363 -0.139861 
-0.0396967 0.0264059 -0.144435 -0.0591329 0.0268178 -0.147227 -0.0790058 0.0275677 -0.14944 
-0.0986288 0.0298092 -0.148379 -0.118188 0.0324332 -0.146478 -0.135002 0.0364887 -0.140152 
-0.151281 0.0408235 -0.132963 -0.162273 0.0457355 -0.121835 -0.172529 0.0507279 -0.110158 
-0.176298 0.0549195 -0.096798 -0.179491 0.05904 -0.0832888 -0.179476 0.0612214 -0.0706818 
-0.179324 0.0633204 -0.0581132 0.065612 0.0808728 -0.0171386 0.0696499 0.081566 -0.0172203 
0.0727426 0.081733 -0.0167258 0.0741832 0.0812518 -0.0148551 0.0742777 0.0802425 -0.0118631 
0.0717697 0.0784756 -0.00661974 0.0674669 0.0761864 0.000176326 0.0593373 0.0729769 0.00983896 
0.0489856 0.0692331 0.0211661 0.0336801 0.0643334 0.0350224 0.0159727 0.0588733 0.050105 
-0.00665833 0.0520186 0.0656807 -0.0312589 0.0446059 0.0814537 -0.058252 0.0357673 0.0943048 
-0.0860211 0.0264662 0.106208 -0.111141 0.0162301 0.112618 -0.135582 0.00575416 0.117619 
-0.152205 -0.0044437 0.117357 -0.167303 -0.0145874 0.11607 -0.17232 -0.0227437 0.111528 
-0.17593 -0.0306227 0.106531 -0.17102 -0.0350394 0.0999431 -0.165353 -0.0391483 0.0932133 
-0.160663 -0.0393584 0.0857426 -0.156015 -0.0394027 0.0782403 0.0663797 0.0743055 -0.0220444 
0.069825 0.0746682 -0.0223955 0.0722879 0.0744386 -0.0220891 0.0730591 0.0734615 -0.0203027 
0.0724521 0.0718755 -0.0173104 0.0691904 0.0693823 -0.0119454 0.0640979 0.0662635 -0.00494387 
0.0551119 0.0620317 0.00507678 0.0438649 0.0571538 0.0168506 0.0276129 0.0509496 0.0313635 
0.00893413 0.0441024 0.0472045 -0.0146317 0.0358384 0.0638262 -0.0401525 0.0270075 0.0807601 
-0.0678424 0.0169809 0.0951119 -0.0962359 0.00656633 0.108626 -0.121493 -0.00433965 0.116918 
-0.145946 -0.0153716 0.123871 -0.161859 -0.0256041 0.125555 -0.176105 -0.0356807 0.126211 
-0.179537 -0.0432238 0.123148 -0.181461 -0.0504135 0.119566 -0.174484 -0.0535756 0.113518 
-0.166716 -0.0563797 0.107251 -0.160908 -0.0548428 0.0992972 -0.155184 -0.053121 0.0912713 
0.0668834 0.0681388 -0.0268709 0.0696733 0.0682508 -0.0275913 0.0714398 0.0677255 -0.027611 
0.0714606 0.0663874 -0.0261079 0.070059 0.0643868 -0.0233641 0.065932 0.0613774 -0.0182064 
0.0599255 0.0576724 -0.0113839 0.0499546 0.0527181 -0.00147375 0.0376819 0.0470384 0.0102292 
0.0203896 0.0399038 0.0248434 0.000663619 0.0320638 0.0408691 -0.0238265 0.0227734 0.0580696 
-0.0502222 0.0129029 0.0757401 -0.0784649 0.0019714 0.0915003 -0.107307 -0.00930416 0.106641 
-0.132462 -0.0207895 0.117297 -0.156673 -0.0323286 0.126804 -0.171586 -0.0427053 0.131353 
-0.184686 -0.0528552 0.134935 -0.186202 -0.060004 0.13428 -0.186102 -0.066734 0.133034 
-0.176736 -0.0688529 0.128056 -0.166546 -0.070562 0.122746 -0.159471 -0.0674424 0.114347 
-0.152528 -0.0641175 0.105816 0.0671535 0.0623264 -0.0316273 0.0692325 0.0622584 -0.0328052 
0.0702439 0.0615268 -0.0332731 0.0694425 0.0599466 -0.0322295 0.0671639 0.0576749 -0.0299543 
0.0620729 0.0543354 -0.0252949 0.0550423 0.0502595 -0.0189914 0.0439732 0.0448476 -0.00960633 
0.030559 0.03866 0.00156804 0.0121436 0.030926 0.0157922 -0.00869667 0.0224422 0.031495 
-0.0341016 0.0124643 0.0488612 -0.0613325 0.00188877 0.0668928 -0.0900006 -0.00969691 0.0839801 
-0.119135 -0.0216103 0.100761 -0.143978 -0.033595 0.114208 -0.167722 -0.045598 0.126799 
-0.181381 -0.0562157 0.135028 -0.193072 -0.0665632 0.142405 -0.192378 -0.0735111 0.14498 
-0.189956 -0.0799848 0.146885 -0.177915 -0.0812474 0.143445 -0.16502 -0.0820468 0.13953 
-0.156545 -0.0774904 0.13072 -0.148258 -0.072706 0.121701 0.0673417 0.0573662 -0.0363856 
0.0687073 0.0572373 -0.0381344 0.0689675 0.05645 -0.0392009 0.0673489 0.0548293 -0.0388237 
0.0641996 0.0525295 -0.0372702 0.0581463 0.0491794 -0.0334317 0.0500902 0.0451049 -0.0280172 
0.0379126 0.0397057 -0.0195871 0.0233418 0.0335372 -0.00940571 0.00377738 0.0258186 0.00396366 
-0.0182082 0.0173485 0.0188787 -0.0445691 0.00736099 0.0360699 -0.0726801 -0.00323345 0.0541715 
-0.101824 -0.0148812 0.0725731 -0.131303 -0.0268706 0.0910719 -0.155862 -0.0389841 0.107761 
-0.17916 -0.0511294 0.123985 -0.19149 -0.0618896 0.136743 -0.20168 -0.0723797 0.148825 
-0.198528 -0.0792769 0.155514 -0.193514 -0.0856728 0.161451 -0.178464 -0.0864289 0.159986 
-0.162521 -0.0866836 0.157864 -0.152478 -0.0811935 0.148513 -0.142685 -0.0754589 0.138853 
0.0674685 0.0530452 -0.0411451 0.0681188 0.0529449 -0.0435502 0.0676306 0.0522146 -0.0453279 
0.0651988 0.0507044 -0.0457724 0.0611833 0.0485588 -0.0451305 0.054169 0.0454378 -0.0423545 
0.0450865 0.0416442 -0.0381068 0.0317928 0.0366102 -0.0309539 0.0160539 0.0308559 -0.0221139 
-0.00467896 0.023614 -0.00994785 -0.027833 0.0156507 0.00383082 -0.0551807 0.00616204 0.0205914 
-0.0842058 -0.00393675 0.0385447 -0.113863 -0.0152024 0.0582511 -0.143725 -0.0268465 0.078526 
-0.168022 -0.0388109 0.098796 -0.190892 -0.0508572 0.119065 -0.201837 -0.0616862 0.136989 
-0.210455 -0.0722776 0.154456 -0.204659 -0.0792367 0.165923 -0.196851 -0.0856889 0.176553 
-0.178539 -0.0862005 0.177392 -0.159292 -0.0861841 0.177361 -0.147554 -0.0801379 0.167371 
-0.136135 -0.073835 0.156956 0.0677283 0.0497426 -0.0459507 0.0677362 0.0497699 -0.04911 
0.0665907 0.0492236 -0.0517276 0.0634583 0.0479944 -0.0531672 0.058707 0.046209 -0.0536468 
0.0508801 0.0435908 -0.0521966 0.0409318 0.0403983 -0.0494152 0.026679 0.0361443 -0.0438816 
0.00992664 0.0312739 -0.0367497 -0.0118681 0.0250846 -0.0261508 -0.0361077 0.0182557 -0.0138708 
-0.0644545 0.00997871 0.00217241 -0.0944443 0.00112256 0.0197209 -0.124769 -0.00897526 0.0406102 
-0.155201 -0.0194758 0.0625831 -0.179472 -0.0305077 0.0865331 -0.202164 -0.0416757 0.11099 
-0.211928 -0.0519057 0.134431 -0.219169 -0.0619527 0.157674 -0.210806 -0.0686423 0.174385 
-0.200266 -0.0748634 0.190185 -0.178681 -0.0753776 0.193564 -0.156115 -0.0753846 0.195839 
-0.142672 -0.0696065 0.185122 -0.129618 -0.0635821 0.173852 0.0680723 0.047085 -0.0507855 
0.0674841 0.0473029 -0.0547611 0.0657388 0.0470207 -0.0582999 0.0619773 0.0461806 -0.0608444 
0.0565729 0.0448858 -0.0625787 0.0480272 0.0429437 -0.0626207 0.0373149 0.0405551 -0.0614955 
0.0222023 0.0373439 -0.0577979 0.00453456 0.0336549 -0.0526065 -0.0182547 0.0288828 -0.0438049 
-0.0435272 0.0235857 -0.0332531 -0.072881 0.0169719 -0.0181088 -0.103867 0.00983152 -0.00112759 
-0.134956 0.00139919 0.0208675 -0.166078 -0.00745215 0.0444888 -0.190474 -0.0170555 0.0721813 
-0.213144 -0.0268516 0.100918 -0.221856 -0.0360598 0.130097 -0.227845 -0.0451533 0.159362 
-0.216964 -0.0513636 0.181613 -0.203729 -0.0571716 0.202884 -0.178866 -0.0578449 0.208953 
-0.152969 -0.0580617 0.21367 -0.137817 -0.0530737 0.202171 -0.123122 -0.0478642 0.189983 
0.0686802 0.0453136 -0.0556015 0.0676214 0.0457476 -0.0604416 0.0654255 0.0457647 -0.0649689 
0.0612193 0.0453597 -0.0687136 0.0553752 0.0446107 -0.0718207 0.0463633 0.0434201 -0.073512 
0.0351668 0.0419251 -0.074227 0.0194934 0.0398885 -0.0725996 0.00122053 0.0375377 -0.0696122 
-0.0222866 0.0344235 -0.062927 -0.0483315 0.0309393 -0.0544489 -0.0785247 0.0264118 -0.0406075 
-0.110377 0.021467 -0.0246209 -0.142217 0.0153809 -0.0020413 -0.174053 0.00892454 0.0226766 
-0.198728 0.00170671 0.053408 -0.221566 -0.00570635 0.0856813 -0.229607 -0.0128099 0.119777 
-0.23476 -0.0198531 0.154228 -0.222022 -0.024794 0.181402 -0.206788 -0.0294416 0.20756 
-0.179456 -0.0302682 0.216274 -0.151048 -0.0307551 0.223436 -0.134607 -0.0273865 0.211739 
-0.118675 -0.0238538 0.199239 0.0694282 0.0440131 -0.0604077 0.0679658 0.0446766 -0.0661379 
0.0653984 0.0450116 -0.0716893 0.0608456 0.0450662 -0.0766849 0.054675 0.0448924 -0.0812275 
0.0453311 0.0444935 -0.0846516 0.0337989 0.0439394 -0.0873043 0.0177237 0.0431478 -0.0878718 
-0.000989554 0.0422184 -0.0872284 -0.0250675 0.0408899 -0.0828289 -0.0517466 0.0393679 -0.0766082 
-0.08269 0.0371515 -0.0642843 -0.115339 0.0346573 -0.0495192 -0.147923 0.031279 -0.0266321 
-0.180486 0.0276138 -0.00111094 -0.205522 0.0232899 0.0322857 -0.228628 0.018797 0.0677015 
-0.2362 0.0143733 0.106277 -0.240741 0.00996303 0.14547 -0.226497 0.00671132 0.17724 
-0.209632 0.00362126 0.207974 -0.18026 0.0026444 0.219308 -0.149777 0.00185538 0.228917 
-0.132271 0.00316401 0.217331 -0.115318 0.00456192 0.204842 0.070409 0.0432771 -0.0649876 
0.0686704 0.0441071 -0.0715711 0.0658767 0.0446832 -0.0781112 0.0611557 0.0450923 -0.0843222 
0.0548644 0.0453654 -0.0902651 0.0454443 0.0455894 -0.0953952 0.0338663 0.0457796 -0.0999648 
0.0177355 0.0460022 -0.102748 -0.00103908 0.0462437 -0.104495 -0.0252696 0.0464684 -0.102542 
-0.0521453 0.0466851 -0.0987967 -0.0834022 0.0466812 -0.0884389 -0.116412 0.0465891 -0.0754362 
-0.149367 0.0461024 -0.0531712 -0.182305 0.0454876 -0.0279021 -0.207559 0.0445605 0.00655693 
-0.230841 0.0435532 0.0433723 -0.238349 0.0424851 0.0842379 -0.242779 0.0414051 0.125894 
-0.22823 0.0404077 0.160318 -0.211033 0.0394218 0.193734 -0.181281 0.0384867 0.207323 
-0.150413 0.037556 0.219149 -0.13272 0.0366016 0.20912 -0.115587 0.0356462 0.19816 
0.0714923 0.0427902 -0.0694677 0.069534 0.0437588 -0.0768884 0.0665779 0.0445422 -0.0844014 
0.0617676 0.0452594 -0.0918123 0.0554463 0.0459229 -0.0991399 0.0460626 0.0466953 -0.105964 
0.0345669 0.047543 -0.112441 0.0185333 0.048678 -0.11745 -0.000135411 0.0499798 -0.121606 
-0.0243338 0.0516553 -0.122173 -0.0512133 0.0535119 -0.120998 -0.0825911 0.0556771 -0.112804 
-0.115768 0.0579656 -0.101803 -0.148931 0.0604516 -0.0805698 -0.182089 0.0630017 -0.0560185 
-0.207496 0.0656932 -0.0212041 -0.230917 0.0684209 0.0162419 -0.238538 0.0710065 0.058431 
-0.243077 0.0735645 0.101546 -0.228753 0.0750707 0.137768 -0.211797 0.0764301 0.173029 
-0.182397 0.0756214 0.188711 -0.151892 0.07462 0.202653 -0.134397 0.071313 0.194819 
-0.117455 0.0679079 0.186058 0.0726288 0.0425274 -0.0733981 0.0705322 0.0435185 -0.0815126 
0.0674977 0.0443661 -0.0898347 0.0626978 0.0451987 -0.0982434 0.0564595 0.0460191 -0.106723 
0.0472679 0.0470312 -0.11496 0.0360397 0.0481756 -0.12303 0.0203741 0.0497728 -0.12993 
0.00213182 0.051633 -0.136151 -0.0215885 0.0541937 -0.138994 -0.0479649 0.0570941 -0.140199 
-0.0788486 0.0608445 -0.134332 -0.111535 0.0649349 -0.125635 -0.144274 0.0698927 -0.106368 
-0.177029 0.0751318 -0.0836724 -0.202263 0.0810194 -0.0503577 -0.225569 0.0870733 -0.0143203 
-0.233674 0.0929148 0.026739 -0.238813 0.0987148 0.0687784 -0.225958 0.102477 0.104701 
-0.210593 0.105956 0.13977 -0.183246 0.105474 0.156999 -0.154834 0.10464 0.172642 
-0.13843 0.0996812 0.168171 -0.122537 0.0945472 0.162844 0.0737845 0.0423455 -0.0771299 
0.071579 0.0433173 -0.0858867 0.0684963 0.0441773 -0.0949585 0.0637429 0.0450556 -0.104292 
0.0576283 0.0459488 -0.113839 0.0486852 0.0470891 -0.123387 0.0377913 0.0483999 -0.132938 