# vtk DataFile Version 2.0
vtk output
ASCII
DATASET RECTILINEAR_GRID
DIMENSIONS 13 13 13
X_COORDINATES 13 float
5 5.20833 5.41667 5.625 5.83333 6.04167 6.25 6.45833 6.66667 
6.875 7.08333 7.29167 7.5 
Y_COORDINATES 13 float
-5 -4.79167 -4.58333 -4.375 -4.16667 -3.95833 -3.75 -3.54167 -3.33333 
-3.125 -2.91667 -2.70833 -2.5 
Z_COORDINATES 13 float
7.5 7.70833 7.91667 8.125 8.33333 8.54167 8.75 8.95833 9.16667 
9.375 9.58333 9.79167 10 
POINT_DATA 2197
VECTORS grad float
-0.134743 0.224202 -0.055909 -0.133506 0.21012 -0.0596566 -0.128786 0.196843 -0.0629295 
-0.122152 0.185095 -0.0648108 -0.113959 0.174592 -0.065558 -0.105628 0.165318 -0.0646976 
-0.0972038 0.15689 -0.0627284 -0.0897842 0.149069 -0.0597295 -0.0829482 0.1416 -0.0561326 
-0.0774351 0.134322 -0.0524065 -0.0725634 0.127137 -0.0486176 -0.0688046 0.12011 -0.0453778 
-0.065491 0.113147 -0.0423577 -0.149489 0.245074 -0.0497312 -0.147798 0.228869 -0.0548764 
-0.141888 0.21419 -0.0593438 -0.133994 0.20158 -0.0621335 -0.124485 0.190655 -0.0635564 
-0.115135 0.181055 -0.0630997 -0.105896 0.172368 -0.0613468 -0.0979696 0.164055 -0.0583746 
-0.0908066 0.155958 -0.0546944 -0.0850985 0.147752 -0.0508107 -0.0800957 0.139492 -0.0468284 
-0.0761651 0.131234 -0.0434221 -0.0726634 0.122977 -0.0402463 -0.167149 0.264181 -0.041338 
-0.164111 0.245988 -0.0483819 -0.156101 0.230427 -0.0544402 -0.146335 0.21761 -0.0584835 
-0.135138 0.207029 -0.0608848 -0.124691 0.197776 -0.0610971 -0.114761 0.189439 -0.0597997 
-0.106587 0.181012 -0.0570195 -0.0994321 0.172531 -0.0533782 -0.0938184 0.163408 -0.0493719 
-0.0889518 0.153974 -0.0451887 -0.0849793 0.144272 -0.0415603 -0.0813643 0.134462 -0.038154 
-0.187387 0.281727 -0.0309848 -0.182212 0.261665 -0.0403708 -0.171297 0.245682 -0.0483709 
-0.159116 0.233239 -0.0539728 -0.145903 0.223679 -0.0576205 -0.13429 0.215369 -0.0587365 
-0.123781 0.207921 -0.0581063 -0.115587 0.199713 -0.0556642 -0.108736 0.191063 -0.0521698 
-0.103473 0.181035 -0.0480718 -0.0989791 0.170339 -0.0436812 -0.0950794 0.159003 -0.0397816 
-0.0914174 0.14741 -0.0360786 -0.210243 0.290252 -0.0193509 -0.201105 0.2701 -0.0320358 
-0.185754 0.255581 -0.0427317 -0.170277 0.245269 -0.0505662 -0.154699 0.238386 -0.0560693 
-0.142101 0.232388 -0.0585774 -0.131558 0.227 -0.0590202 -0.124093 0.219748 -0.0570793 
-0.118415 0.211413 -0.0537544 -0.114213 0.200576 -0.0493507 -0.110726 0.188527 -0.0444239 
-0.107207 0.175321 -0.0398456 -0.103675 0.161652 -0.0354068 -0.235062 0.292011 -0.00675654 
-0.220594 0.273103 -0.023458 -0.199655 0.261462 -0.037415 -0.180223 0.254601 -0.0479877 
-0.162018 0.251635 -0.0558028 -0.14857 0.248976 -0.0600696 -0.138402 0.246528 -0.0618894 
-0.132229 0.240784 -0.0605723 -0.128375 0.233126 -0.0574337 -0.125766 0.221553 -0.0525637 
-0.123762 0.208081 -0.0468543 -0.120855 0.192828 -0.0412916 -0.117586 0.176863 -0.0357877 
-0.256496 0.275377 0.00396927 -0.234963 0.262132 -0.0177454 -0.207401 0.256728 -0.0359121 
-0.183733 0.256024 -0.0502675 -0.163237 0.25915 -0.0615175 -0.149905 0.261574 -0.0684743 
-0.141512 0.263514 -0.0724705 -0.138245 0.260216 -0.0719592 -0.137955 0.253877 -0.0688306 
-0.138277 0.24181 -0.0627366 -0.138896 0.226967 -0.0552047 -0.137092 0.209674 -0.0475204 
-0.134318 0.1914 -0.039775 -0.275787 0.247094 0.0135116 -0.246089 0.242312 -0.0138475 
-0.211248 0.245272 -0.0368245 -0.183167 0.252439 -0.0556243 -0.160593 0.263034 -0.0710202 
-0.147987 0.271646 -0.081257 -0.142255 0.278892 -0.0879358 -0.142918 0.278634 -0.0883456 
-0.147294 0.274018 -0.0851153 -0.151393 0.261612 -0.0773172 -0.155359 0.24543 -0.0673045 
-0.154969 0.226099 -0.0567782 -0.152837 0.205508 -0.0460464 -0.277494 0.198847 0.0162495 
-0.241383 0.206385 -0.0164891 -0.201083 0.219804 -0.0448141 -0.170308 0.236159 -0.0692499 
-0.147296 0.254905 -0.0905165 -0.137423 0.270287 -0.105651 -0.136611 0.283349 -0.116557 
-0.143604 0.286731 -0.118222 -0.155129 0.284494 -0.114521 -0.164774 0.272604 -0.103512 
-0.173508 0.256033 -0.0889594 -0.175018 0.235852 -0.0735258 -0.173639 0.214227 -0.0577398 
-0.269859 0.139994 0.0153725 -0.228265 0.161902 -0.0226049 -0.183473 0.186892 -0.0565634 
-0.15092 0.213133 -0.0872683 -0.12834 0.240395 -0.115322 -0.122265 0.262855 -0.136214 
-0.127573 0.282004 -0.152168 -0.142172 0.289347 -0.155265 -0.162165 0.289837 -0.150898 
-0.178296 0.278915 -0.135877 -0.192553 0.26246 -0.11569 -0.196221 0.242061 -0.0942524 
-0.195654 0.220085 -0.0723137 -0.237892 0.0745038 0.00620738 -0.195846 0.107796 -0.0351327 
-0.150713 0.141156 -0.0741611 -0.119383 0.173964 -0.111573 -0.0992988 0.206321 -0.147669 
-0.0988213 0.233155 -0.175813 -0.111865 0.256178 -0.198474 -0.135616 0.26704 -0.203391 
-0.165583 0.27084 -0.198004 -0.18911 0.26319 -0.177447 -0.209516 0.249988 -0.149535 
-0.215474 0.233013 -0.12028 -0.215653 0.214529 -0.0904883 -0.195192 0.0060856 -0.00661429 
-0.154912 0.049444 -0.0504893 -0.111271 0.0897626 -0.0943391 -0.0824867 0.127672 -0.138652 
-0.0658083 0.163617 -0.183342 -0.0717214 0.193631 -0.219398 -0.0932148 0.219552 -0.249498 
-0.126799 0.233737 -0.256405 -0.167403 0.241106 -0.249843 -0.198731 0.237743 -0.223078 
-0.22556 0.229178 -0.186517 -0.233866 0.217234 -0.148646 -0.234762 0.203939 -0.110251 
-0.144788 -0.0523369 -0.0215739 -0.10889 -0.00762415 -0.0655805 -0.0694827 0.0323328 -0.111826 
-0.044916 0.0685438 -0.160553 -0.0324418 0.101703 -0.211303 -0.0440671 0.129699 -0.253237 
-0.0723127 0.154135 -0.28909 -0.113291 0.170206 -0.297516 -0.161662 0.18142 -0.290016 
-0.198605 0.185402 -0.258377 -0.230007 0.185878 -0.215033 -0.240301 0.183958 -0.170565 
-0.242153 0.18108 -0.125648 -0.138363 0.226069 -0.0844307 -0.136597 0.210853 -0.0881093 
-0.130843 0.196592 -0.0912148 -0.122882 0.184108 -0.0925174 -0.113122 0.173072 -0.092351 
-0.103374 0.163535 -0.0900454 -0.093633 0.155033 -0.0862646 -0.0853782 0.147346 -0.0811975 
-0.0779859 0.140132 -0.0753835 -0.0724039 0.133203 -0.0695214 -0.0676996 0.126412 -0.0636361 
-0.0643827 0.119763 -0.058535 -0.0616208 0.11317 -0.0537477 -0.154311 0.248638 -0.0831138 
-0.151952 0.231071 -0.087794 -0.144816 0.215216 -0.0917786 -0.135385 0.201673 -0.0937288 
-0.124083 0.190014 -0.0940213 -0.113107 0.179946 -0.0919124 -0.102357 0.170975 -0.0881474 
-0.0934492 0.162624 -0.0829068 -0.0856116 0.154633 -0.0768093 -0.0797735 0.146693 -0.0705902 
-0.0749048 0.138777 -0.0643122 -0.0714277 0.130897 -0.0588439 -0.0685072 0.123031 -0.0536996 
-0.173532 0.269219 -0.0800806 -0.169644 0.249298 -0.0859388 -0.160191 0.232252 -0.0909562 
-0.148664 0.218198 -0.0937528 -0.135449 0.206581 -0.0947399 -0.123153 0.196576 -0.0931035 
-0.111491 0.187683 -0.0896578 -0.102138 0.179032 -0.0844977 -0.0941248 0.170523 -0.0783421 
-0.0882561 0.161645 -0.0718849 -0.0834269 0.15259 -0.0652816 -0.07988 0.143364 -0.0594331 
-0.076846 0.134071 -0.0538866 -0.195648 0.288042 -0.0755292 -0.189405 0.265764 -0.0827212 
-0.176805 0.247885 -0.0889074 -0.162631 0.233803 -0.0927264 -0.147174 0.222815 -0.0946165 
-0.133475 0.213399 -0.0936966 -0.120988 0.205068 -0.0908387 -0.111372 0.19644 -0.0859838 
-0.103423 0.18764 -0.0799695 -0.0977234 0.177891 -0.0733794 -0.0931138 0.167683 -0.0665103 
-0.0895772 0.157012 -0.0602702 -0.0864698 0.146156 -0.0542819 -0.221201 0.296975 -0.0702052 
-0.210663 0.273995 -0.0792694 -0.193312 0.257033 -0.0871118 -0.175551 0.244528 -0.0924597 
-0.157455 0.235655 -0.0957751 -0.142439 0.22807 -0.0960414 -0.129547 0.221375 -0.094205 
-0.120258 0.213517 -0.0898903 -0.113062 0.204983 -0.0841365 -0.108097 0.194627 -0.0773037 
-0.104215 0.183386 -0.0699478 -0.100945 0.171255 -0.0629903 -0.0979192 0.158767 -0.0561922 
-0.249333 0.29849 -0.0643018 -0.233044 0.276049 -0.0756418 -0.209738 0.261317 -0.0855061 
-0.187685 0.251592 -0.0927629 -0.166653 0.245949 -0.097895 -0.150384 0.241127 -0.0996999 
-0.137401 0.236874 -0.0992104 -0.128882 0.230345 -0.095612 -0.122955 0.222497 -0.0902083 
-0.119151 0.211729 -0.0830504 -0.116377 0.199547 -0.0750419 -0.113565 0.185945 -0.0671226 
-0.110738 0.171775 -0.059239 -0.27506 0.280158 -0.0598885 -0.251222 0.262872 -0.0742928 
-0.220956 0.25375 -0.0870166 -0.194322 0.249421 -0.097103 -0.170649 0.248998 -0.10504 
-0.153905 0.248513 -0.109199 -0.141939 0.247984 -0.110751 -0.13544 0.243717 -0.108061 
-0.132116 0.237279 -0.102908 -0.130519 0.226571 -0.0948457 -0.129758 0.213793 -0.0853733 
-0.127845 0.199006 -0.075572 -0.125473 0.183414 -0.0656391 -0.299264 0.249256 -0.0564189 
-0.266738 0.240047 -0.0743868 -0.228874 0.238678 -0.0905006 -0.197477 0.241401 -0.104 
-0.17135 0.24746 -0.115369 -0.154622 0.252306 -0.122397 -0.144377 0.256316 -0.126431 
-0.140691 0.254899 -0.124771 -0.140814 0.250332 -0.119805 -0.142084 0.239981 -0.110472 
-0.14391 0.226827 -0.0990217 -0.143177 0.211035 -0.0867555 -0.141421 0.194188 -0.0741629 
-0.305613 0.197476 -0.0571022 -0.266695 0.200764 -0.0789204 -0.223569 0.209573 -0.0991882 
-0.189441 0.220867 -0.117233 -0.162643 0.234183 -0.133465 -0.147742 0.244959 -0.144629 
-0.141045 0.253981 -0.152296 -0.141975 0.256017 -0.151925 -0.147332 0.253997 -0.146886 
-0.152779 0.244906 -0.135195 -0.158268 0.232387 -0.12028 -0.15919 0.216773 -0.104022 
-0.158287 0.19992 -0.0872262 -0.302477 0.134604 -0.0599917 -0.258387 0.152736 -0.0858127 
-0.21124 0.173015 -0.11064 -0.175459 0.193684 -0.133831 -0.148938 0.214671 -0.155688 
-0.136826 0.231693 -0.17166 -0.134649 0.24598 -0.183573 -0.141152 0.251788 -0.184628 
-0.152694 0.252674 -0.179377 -0.163011 0.245323 -0.164751 -0.172734 0.233977 -0.14558 
-0.175565 0.219168 -0.124519 -0.175639 0.202973 -0.102701 -0.273095 0.0663584 -0.0670848 
-0.229843 0.0968297 -0.096163 -0.183611 0.126038 -0.125478 -0.149721 0.153564 -0.154271 
-0.125888 0.179719 -0.182639 -0.118354 0.201058 -0.204383 -0.122061 0.219074 -0.221559 
-0.135231 0.22838 -0.224283 -0.153897 0.232628 -0.218616 -0.169672 0.228711 -0.200156 
-0.184047 0.220835 -0.175493 -0.188997 0.209566 -0.148558 -0.190177 0.196939 -0.120713 
-0.232135 -0.00425759 -0.0760325 -0.19237 0.0374468 -0.108039 -0.149232 0.0744651 -0.141809 
-0.118798 0.107736 -0.176405 -0.0987148 0.137955 -0.211675 -0.0965494 0.162759 -0.239617 
-0.106741 0.183829 -0.262505 -0.127062 0.196511 -0.267007 -0.153266 0.204322 -0.260832 
-0.174759 0.204587 -0.23814 -0.193968 0.201193 -0.207441 -0.20113 0.19467 -0.174159 
-0.203473 0.186896 -0.139844 -0.181553 -0.0620849 -0.0847902 -0.147805 -0.0176727 -0.118073 
-0.110421 0.0205408 -0.154507 -0.0851564 0.0538875 -0.192996 -0.069767 0.0832686 -0.233158 
-0.0727182 0.107728 -0.265666 -0.088318 0.128795 -0.292894 -0.114102 0.143755 -0.298821 
-0.145799 0.155169 -0.292378 -0.171408 0.161517 -0.26666 -0.194064 0.165407 -0.231598 
-0.203155 0.167047 -0.193844 -0.20682 0.167787 -0.155014 -0.141887 0.225676 -0.113678 
-0.139521 0.209495 -0.117284 -0.13264 0.194387 -0.120222 -0.123224 0.181277 -0.120899 
-0.111744 0.169797 -0.119734 -0.100435 0.160082 -0.115846 -0.0892443 0.151585 -0.110079 
-0.080072 0.144116 -0.102779 -0.0720719 0.137244 -0.0945892 -0.0664203 0.130757 -0.0864929 
-0.0619075 0.124456 -0.0784422 -0.059083 0.118286 -0.0714689 -0.056934 0.112167 -0.0649265 
-0.158833 0.249679 -0.117413 -0.155762 0.231025 -0.12155 -0.147342 0.214204 -0.124987 
-0.136273 0.199885 -0.125992 -0.123045 0.187605 -0.125014 -0.110312 0.177153 -0.121066 
-0.097919 0.167963 -0.115069 -0.0879461 0.159637 -0.107364 -0.0793782 0.151812 -0.0986664 
-0.0734042 0.144209 -0.0900083 -0.0686879 0.136715 -0.0813694 -0.0657108 0.129304 -0.0738445 
-0.0634294 0.121927 -0.0667652 -0.179257 0.271474 -0.119946 -0.17454 0.250228 -0.124397 
-0.163657 0.231997 -0.128186 -0.150331 0.216916 -0.12953 -0.135014 0.204402 -0.128879 
-0.120769 0.193733 -0.125144 -0.107262 0.184336 -0.119282 -0.0966521 0.1755 -0.111522 
-0.0877235 0.16699 -0.102659 -0.0815846 0.158401 -0.09366 -0.0767983 0.149773 -0.0845951 
-0.0737117 0.1411 -0.0765693 -0.071305 0.13241 -0.0689593 -0.202756 0.291316 -0.121415 
-0.195562 0.267373 -0.125987 -0.181399 0.247998 -0.130001 -0.165282 0.232551 -0.131693 
-0.147574 0.220305 -0.131492 -0.13174 0.209877 -0.128212 -0.117197 0.200703 -0.122807 
-0.106094 0.191666 -0.115302 -0.0969881 0.182709 -0.106577 -0.0908236 0.173246 -0.0974324 
-0.0860852 0.163539 -0.0880851 -0.0829273 0.153584 -0.0796032 -0.0804016 0.143531 -0.0714677 
-0.230291 0.300528 -0.122672 -0.218626 0.275406 -0.127382 -0.19956 0.256489 -0.131768 
-0.179696 0.242129 -0.13409 -0.159184 0.231481 -0.134731 -0.141778 0.222428 -0.132327 
-0.126513 0.214473 -0.127822 -0.115362 0.206 -0.120876 -0.1066 0.197226 -0.112511 
-0.100835 0.187303 -0.103236 -0.0965243 0.176824 -0.0935207 -0.0934914 0.165769 -0.084372 
-0.0909699 0.154482 -0.07545 -0.260852 0.301768 -0.12377 -0.243222 0.276604 -0.128631 
-0.218036 0.259349 -0.133499 -0.193708 0.247164 -0.136663 -0.170081 0.239112 -0.138439 
-0.151116 0.232282 -0.137227 -0.135365 0.226296 -0.133955 -0.124501 0.218961 -0.127795 
-0.116472 0.210841 -0.119957 -0.111427 0.200769 -0.110563 -0.107828 0.18975 -0.100416 
-0.105067 0.177728 -0.090442 -0.102642 0.165305 -0.0805378 -0.289854 0.282093 -0.125967 
-0.264437 0.261593 -0.131483 -0.232169 0.249354 -0.137512 -0.203086 0.241869 -0.142271 
-0.176599 0.238259 -0.145994 -0.156682 0.235106 -0.146636 -0.141297 0.232267 -0.145154 
-0.13165 0.227012 -0.139967 -0.125334 0.220354 -0.132628 -0.121791 0.21078 -0.122732 
-0.119594 0.199791 -0.111596 -0.117491 0.187302 -0.100134 -0.115424 0.174212 -0.0885413 
-0.317868 0.249171 -0.12886 -0.283511 0.236317 -0.135349 -0.243552 0.231218 -0.142971 
-0.209529 0.230031 -0.149801 -0.180343 0.232033 -0.155986 -0.15986 0.233476 -0.158901 
-0.14538 0.234532 -0.159562 -0.137539 0.231955 -0.155466 -0.133554 0.227269 -0.148607 
-0.132012 0.218603 -0.137966 -0.131654 0.208007 -0.12549 -0.130451 0.195365 -0.11212 
-0.12891 0.181905 -0.0983914 -0.328059 0.194876 -0.132936 -0.287454 0.194505 -0.141346 
-0.2425 0.199245 -0.151608 -0.205766 0.20607 -0.161616 -0.17573 0.214593 -0.171419 
-0.156305 0.221306 -0.177536 -0.144198 0.226771 -0.181111 -0.139491 0.227496 -0.178285 
-0.139082 0.225471 -0.171744 -0.14048 0.218603 -0.159677 -0.142754 0.209387 -0.14493 
-0.142903 0.197697 -0.128667 -0.142201 0.185016 -0.111798 -0.328782 0.129226 -0.13764 
-0.283357 0.143909 -0.148476 -0.234842 0.159922 -0.161933 -0.196582 0.175668 -0.175708 
-0.166677 0.191196 -0.189744 -0.149172 0.203538 -0.199555 -0.140219 0.213683 -0.206453 
-0.139351 0.218043 -0.204995 -0.143178 0.219043 -0.198684 -0.148016 0.214447 -0.184829 
-0.153344 0.207137 -0.167316 -0.155084 0.196984 -0.147638 -0.155388 0.185693 -0.127093 
-0.301994 0.0593883 -0.141988 -0.25844 0.0870718 -0.155924 -0.211815 0.112422 -0.173164 
-0.175914 0.135273 -0.191334 -0.148751 0.156089 -0.210263 -0.134942 0.172785 -0.224351 
-0.130342 0.186639 -0.235102 -0.134136 0.194494 -0.235157 -0.142803 0.198867 -0.229 
-0.151476 0.197721 -0.212978 -0.16015 0.193898 -0.192173 -0.16374 0.187222 -0.168643 
-0.165296 0.179405 -0.144024 -0.263068 -0.0122973 -0.14618 -0.224337 0.0274818 -0.163512 
-0.182006 0.0613142 -0.184795 -0.150179 0.0904706 -0.207637 -0.12691 0.115817 -0.23175 
-0.117581 0.136303 -0.250373 -0.117864 0.153437 -0.26521 -0.126682 0.164727 -0.266842 
-0.140456 0.172625 -0.260806 -0.153137 0.175448 -0.24245 -0.165287 0.175811 -0.21812 
-0.170841 0.173469 -0.190547 -0.173757 0.170045 -0.161676 -0.21299 -0.0689724 -0.147793 
-0.181488 -0.0253519 -0.167789 -0.146004 0.0109969 -0.19211 -0.11998 0.0417073 -0.218431 
-0.101663 0.0678233 -0.246382 -0.0969293 0.0893064 -0.268434 -0.101564 0.107594 -0.286418 
-0.114386 0.12145 -0.289437 -0.131962 0.132732 -0.283767 -0.147586 0.140573 -0.264083 
-0.162264 0.146745 -0.237604 -0.169598 0.150907 -0.207597 -0.173995 0.154264 -0.176179 
-0.145604 0.21755 -0.140899 -0.142354 0.20114 -0.145057 -0.133834 0.18577 -0.148502 
-0.122212 0.172569 -0.148896 -0.108063 0.161136 -0.146804 -0.094416 0.151751 -0.140998 
-0.081115 0.14378 -0.132632 -0.0707988 0.137011 -0.122538 -0.0622157 0.130939 -0.111442 
-0.056783 0.125265 -0.100888 -0.0528778 0.119783 -0.0905979 -0.0509694 0.114349 -0.0818975 
-0.0498599 0.108934 -0.0738332 -0.162648 0.24235 -0.149299 -0.158697 0.223916 -0.153611 
-0.148603 0.207178 -0.157268 -0.135221 0.192915 -0.157698 -0.119161 0.180668 -0.155499 
-0.103925 0.170359 -0.14929 -0.0892576 0.161386 -0.140315 -0.0780367 0.153422 -0.129473 
-0.068817 0.146045 -0.117548 -0.0630494 0.138993 -0.106191 -0.0589555 0.132098 -0.0951098 
-0.0569388 0.125308 -0.085708 -0.0557531 0.118561 -0.076978 -0.182532 0.264682 -0.156605 
-0.177089 0.244129 -0.160375 -0.164697 0.226293 -0.16368 -0.149163 0.211365 -0.163902 
-0.13107 0.198806 -0.161611 -0.114311 0.188034 -0.155312 -0.098471 0.178495 -0.14625 
-0.0865209 0.169664 -0.135206 -0.0768296 0.161245 -0.123011 -0.0708032 0.15297 -0.111244 
-0.0665537 0.144764 -0.0996851 -0.0643899 0.136651 -0.089735 -0.0630603 0.128576 -0.0804287 
-0.204927 0.28483 -0.162944 -0.197293 0.262073 -0.165555 -0.181963 0.243381 -0.168012 
-0.163931 0.22814 -0.167808 -0.143698 0.215712 -0.165436 -0.125472 0.204886 -0.159327 
-0.108632 0.195164 -0.15064 -0.0961078 0.185755 -0.139876 -0.0860907 0.176528 -0.127906 
-0.0798727 0.167167 -0.116077 -0.0754969 0.157741 -0.104316 -0.0731516 0.148334 -0.0939537 
-0.0716185 0.138935 -0.0841501 -0.23073 0.29392 -0.169293 -0.2192 0.270259 -0.170251 
-0.199574 0.252063 -0.171637 -0.178294 0.237768 -0.171043 -0.155666 0.226651 -0.168836 
-0.136064 0.216848 -0.163301 -0.11855 0.207952 -0.155472 -0.105836 0.198812 -0.145394 
-0.0959093 0.189529 -0.13401 -0.0898102 0.179642 -0.122286 -0.085567 0.169463 -0.110397 
-0.0831582 0.159086 -0.0995473 -0.0814831 0.148631 -0.0891138 -0.259089 0.294716 -0.17565 
-0.242382 0.271125 -0.174584 -0.217444 0.254441 -0.174732 -0.192354 0.242035 -0.173774 
-0.167139 0.233115 -0.171916 -0.146229 0.225144 -0.167245 -0.128287 0.217829 -0.160634 
-0.11567 0.209591 -0.151546 -0.106146 0.200817 -0.141021 -0.100399 0.190825 -0.129527 
-0.0964823 0.180243 -0.117564 -0.0940984 0.16914 -0.106172 -0.0923275 0.157829 -0.0950091 
-0.285892 0.274966 -0.182701 -0.262511 0.255647 -0.179927 -0.231493 0.243459 -0.179431 
-0.202375 0.235203 -0.17875 -0.174805 0.230151 -0.17792 -0.153084 0.225388 -0.174631 
-0.135397 0.220825 -0.169648 -0.123615 0.214501 -0.161691 -0.115262 0.207155 -0.152007 
-0.110493 0.197846 -0.140486 -0.107461 0.187585 -0.128075 -0.105438 0.17638 -0.115682 
-0.103819 0.164796 -0.103296 -0.311708 0.242205 -0.19019 -0.280706 0.229817 -0.18591 
-0.243122 0.224015 -0.185146 -0.209839 0.221342 -0.185149 -0.18006 0.221216 -0.185776 
-0.157844 0.220532 -0.184199 -0.140844 0.219461 -0.181102 -0.130363 0.215693 -0.174364 
-0.123668 0.210357 -0.165511 -0.120273 0.202231 -0.153801 -0.11848 0.19275 -0.140704 
-0.117032 0.181836 -0.127019 -0.115722 0.170349 -0.113099 -0.321399 0.189297 -0.196399 
-0.28525 0.188255 -0.192205 -0.243598 0.191381 -0.192575 -0.208177 0.195945 -0.194472 
-0.177832 0.201679 -0.197614 -0.156487 0.205782 -0.198491 -0.141351 0.20876 -0.197807 
-0.133206 0.20819 -0.192384 -0.12912 0.205559 -0.184209 -0.127853 0.199467 -0.171837 
-0.127952 0.191697 -0.157429 -0.127514 0.182078 -0.141798 -0.126861 0.171718 -0.125679 
-0.322525 0.125686 -0.201926 -0.282541 0.138335 -0.198667 -0.23815 0.15174 -0.200915 
-0.201667 0.16442 -0.20535 -0.171628 0.176509 -0.211567 -0.151881 0.185776 -0.215294 
-0.139234 0.193098 -0.217302 -0.133974 0.196068 -0.213245 -0.133003 0.19651 -0.205667 
-0.134262 0.192907 -0.192381 -0.136603 0.187342 -0.176329 -0.137406 0.179549 -0.158406 
-0.137595 0.170865 -0.139734 -0.298714 0.0586101 -0.203395 -0.260773 0.083307 -0.20302 
-0.218545 0.105498 -0.20844 -0.18451 0.12494 -0.216391 -0.15715 0.142141 -0.226404 
-0.140578 0.155664 -0.233485 -0.131446 0.16665 -0.238543 -0.129747 0.173071 -0.235965 
-0.132364 0.176843 -0.228953 -0.136489 0.176583 -0.214594 -0.141344 0.174369 -0.196672 
-0.143683 0.169839 -0.176307 -0.145015 0.164383 -0.154964 -0.263901 -0.00999372 -0.203074 
-0.230597 0.0260251 -0.206443 -0.192696 0.0563452 -0.215607 -0.162657 0.0819509 -0.227505 
-0.139023 0.103715 -0.241631 -0.12632 0.121092 -0.252289 -0.121156 0.135443 -0.260555 
-0.123317 0.145278 -0.259505 -0.129731 0.15249 -0.253047 -0.136871 0.155952 -0.237542 
-0.144362 0.157594 -0.217651 -0.148366 0.156962 -0.194778 -0.150975 0.155419 -0.170713 
-0.218193 -0.0638938 -0.198299 -0.191597 -0.0237975 -0.205533 -0.16024 0.00949932 -0.218168 
-0.135735 0.0372818 -0.233469 -0.116815 0.0605711 -0.250942 -0.108229 0.0795773 -0.264517 
-0.106771 0.0956299 -0.275402 -0.11215 0.108104 -0.275817 -0.121499 0.118501 -0.270153 
-0.130943 0.126266 -0.254327 -0.140433 0.132753 -0.233573 -0.146018 0.137461 -0.209524 
-0.15004 0.141457 -0.184156 -0.149369 0.20744 -0.1676 -0.145163 0.19099 -0.172469 
-0.134873 0.17551 -0.176597 -0.120852 0.162355 -0.176795 -0.103791 0.151094 -0.173792 
-0.0876067 0.14217 -0.165983 -0.0720266 0.134858 -0.154861 -0.0605084 0.128912 -0.14183 
-0.0513487 0.123759 -0.127691 -0.0462089 0.118992 -0.114623 -0.043018 0.114412 -0.102074 
-0.0421343 0.109781 -0.0916838 -0.0421736 0.105129 -0.0821572 -0.166281 0.232874 -0.180565 
-0.161407 0.214997 -0.185237 -0.149538 0.198609 -0.189311 -0.133671 0.184615 -0.189262 
-0.114547 0.172571 -0.185854 -0.0966182 0.162539 -0.177275 -0.0795133 0.153894 -0.16513 
-0.0669974 0.14638 -0.15098 -0.0571462 0.139523 -0.135667 -0.0516726 0.133075 -0.121544 
-0.0483217 0.126826 -0.108 -0.0473835 0.120696 -0.0967671 -0.0474104 0.114614 -0.0864592 
-0.185178 0.255569 -0.192442 -0.179036 0.236227 -0.195717 -0.165113 0.219193 -0.198729 
-0.147268 0.20472 -0.197914 -0.126227 0.192335 -0.193981 -0.106809 0.181604 -0.185 
-0.0885098 0.172014 -0.172538 -0.0751986 0.163237 -0.158035 -0.0647837 0.154932 -0.142347 
-0.0589679 0.146978 -0.127754 -0.0553819 0.139193 -0.113692 -0.0542594 0.131643 -0.101883 
-0.0541224 0.124186 -0.0909743 -0.205831 0.275842 -0.203355 -0.19789 0.255002 -0.204175 
-0.181493 0.23755 -0.205233 -0.161553 0.222918 -0.203193 -0.138725 0.210584 -0.198628 
-0.118043 0.199517 -0.18957 -0.0988418 0.189325 -0.177413 -0.0849143 0.179554 -0.163234 
-0.074049 0.170028 -0.147881 -0.0678832 0.16072 -0.133334 -0.0639959 0.151519 -0.119178 
-0.0625745 0.142616 -0.107027 -0.0621394 0.133833 -0.0956778 -0.228951 0.284706 -0.214415 
-0.217878 0.26343 -0.211775 -0.19799 0.246641 -0.210279 -0.175468 0.232903 -0.206797 
-0.150802 0.221651 -0.201696 -0.129055 0.211285 -0.192913 -0.109323 0.201529 -0.18159 
-0.0951223 0.191707 -0.168253 -0.0841341 0.181848 -0.153746 -0.07782 0.171894 -0.13957 
-0.0737722 0.161896 -0.125556 -0.0720865 0.152097 -0.113131 -0.0713457 0.142377 -0.101343 
-0.253922 0.285015 -0.225586 -0.238717 0.264098 -0.218732 -0.214573 0.248781 -0.214231 
-0.189107 0.236727 -0.209144 -0.162563 0.227333 -0.20358 -0.139901 0.218444 -0.195336 
-0.119915 0.209904 -0.185244 -0.105699 0.200739 -0.173136 -0.094834 0.191211 -0.159857 
-0.0885229 0.181142 -0.146298 -0.0844202 0.170811 -0.132603 -0.0824963 0.160457 -0.119956 
-0.081444 0.150095 -0.10773 -0.277121 0.265517 -0.237039 -0.256702 0.248503 -0.226128 
-0.227769 0.237181 -0.219149 -0.199235 0.228765 -0.213001 -0.171026 0.222717 -0.20753 
-0.147851 0.216616 -0.200205 -0.128149 0.210478 -0.191601 -0.114492 0.203065 -0.180805 
-0.104347 0.19491 -0.168735 -0.0985342 0.185645 -0.155643 -0.0948229 0.17584 -0.142056 
-0.0929512 0.165658 -0.128919 -0.0918155 0.155324 -0.115963 -0.299198 0.233476 -0.248671 
-0.27288 0.222606 -0.233803 -0.23882 0.216879 -0.224681 -0.207139 0.213339 -0.217815 
-0.177398 0.211581 -0.212789 -0.153967 0.209097 -0.206622 -0.134888 0.206113 -0.19967 
-0.122155 0.201144 -0.190237 -0.113107 0.195023 -0.179365 -0.108107 0.187142 -0.166646 
-0.10507 0.178407 -0.153032 -0.103435 0.168856 -0.139235 -0.10236 0.158979 -0.125365 
-0.307276 0.182955 -0.256689 -0.277158 0.182007 -0.240098 -0.240125 0.18415 -0.230606 
-0.20702 0.187017 -0.224372 -0.177116 0.190476 -0.220792 -0.154521 0.192342 -0.216381 
-0.136966 0.193108 -0.211396 -0.125946 0.191246 -0.203339 -0.118719 0.187857 -0.193497 
-0.115141 0.18217 -0.180837 -0.113332 0.175369 -0.166811 -0.112356 0.167345 -0.151976 
-0.111712 0.158832 -0.136818 -0.307918 0.122616 -0.262787 -0.275112 0.133596 -0.245659 
-0.236253 0.144817 -0.23674 -0.202639 0.154907 -0.231854 -0.173299 0.164075 -0.230254 
-0.152119 0.170679 -0.227915 -0.136568 0.175515 -0.225066 -0.127679 0.17711 -0.218389 
-0.122658 0.176823 -0.20949 -0.120826 0.173761 -0.196722 -0.12054 0.169353 -0.182079 
-0.120447 0.163332 -0.166006 -0.120432 0.156666 -0.149361 -0.287182 0.0594195 -0.261342 
-0.256373 0.081079 -0.246868 -0.21977 0.100291 -0.240534 -0.188595 0.116647 -0.23837 
-0.16184 0.130675 -0.239602 -0.143406 0.141402 -0.23984 -0.130709 0.149852 -0.239394 
-0.124513 0.154844 -0.234193 -0.122093 0.157828 -0.226232 -0.122326 0.157972 -0.213335 
-0.123844 0.156739 -0.198047 -0.12496 0.153728 -0.180784 -0.125914 0.150006 -0.162732 
-0.257015 -0.00503805 -0.256568 -0.230267 0.02675 -0.246157 -0.197724 0.0534741 -0.243296 
-0.170287 0.0756739 -0.244458 -0.147011 0.0941871 -0.248899 -0.131907 0.108765 -0.251939 
-0.122441 0.120629 -0.254012 -0.119187 0.128991 -0.250329 -0.119541 0.135321 -0.243304 
-0.121978 0.138928 -0.23027 -0.125426 0.141215 -0.214323 -0.127894 0.141658 -0.195893 
-0.12997 0.141363 -0.176469 -0.216668 -0.055747 -0.245601 -0.195661 -0.0198756 -0.240206 
-0.169001 0.0100649 -0.241265 -0.146601 0.0348447 -0.24584 -0.127673 0.0554196 -0.253281 
-0.116218 0.0720773 -0.258885 -0.109917 0.0860337 -0.263222 -0.109268 0.097056 -0.261112 
-0.111901 0.106375 -0.255257 -0.11614 0.11366 -0.24273 -0.121158 0.119959 -0.226967 
-0.124995 0.124707 -0.208417 -0.12836 0.128833 -0.188752 -0.155139 0.191012 -0.185626 
-0.149697 0.1747 -0.191817 -0.136792 0.159183 -0.19744 -0.118957 0.146317 -0.198015 
-0.0971038 0.135609 -0.194476 -0.0769693 0.127778 -0.184695 -0.0580196 0.121929 -0.170611 
-0.0451459 0.117549 -0.154696 -0.0358002 0.114022 -0.137718 -0.0316763 0.11065 -0.122637 
-0.0300841 0.107353 -0.108475 -0.0309278 0.10375 -0.0970746 -0.0327457 0.100024 -0.086779 
-0.171593 0.217385 -0.201749 -0.165568 0.200833 -0.207758 -0.151073 0.185445 -0.213427 
-0.131209 0.17231 -0.213704 -0.106972 0.161013 -0.209588 -0.0848281 0.151784 -0.198648 
-0.0641279 0.14398 -0.183002 -0.0502134 0.137324 -0.165506 -0.040239 0.131334 -0.146935 
-0.0359132 0.125707 -0.130541 -0.0343261 0.120257 -0.115202 -0.035258 0.114865 -0.102863 
-0.0371975 0.109496 -0.0917237 -0.188379 0.240875 -0.216251 -0.181415 0.224141 -0.220409 
-0.165262 0.209158 -0.224593 -0.143748 0.196102 -0.223752 -0.117867 0.184616 -0.218817 
-0.0944062 0.174354 -0.207257 -0.0726139 0.164937 -0.191129 -0.0579353 0.156279 -0.173176 
-0.0473872 0.148061 -0.154163 -0.0426904 0.140352 -0.13727 -0.0408306 0.132889 -0.121404 
-0.0415593 0.125803 -0.108496 -0.0433234 0.118867 -0.0967713 -0.205457 0.261813 -0.229318 
-0.197241 0.244949 -0.23015 -0.179369 0.230618 -0.231496 -0.15654 0.217946 -0.228811 
-0.129671 0.206625 -0.222839 -0.105505 0.195655 -0.211138 -0.0832033 0.184927 -0.195485 
-0.0680053 0.17451 -0.17807 -0.0569322 0.164272 -0.159633 -0.0517148 0.154632 -0.14296 
-0.0493366 0.145282 -0.127143 -0.0496043 0.136585 -0.113993 -0.0509303 0.12815 -0.10191 
-0.223459 0.270993 -0.242136 -0.213097 0.254579 -0.238403 -0.192946 0.241461 -0.236072 
-0.168727 0.229894 -0.231166 -0.141193 0.219592 -0.224161 -0.116774 0.209009 -0.212686 
-0.0945019 0.198233 -0.198126 -0.0791539 0.187273 -0.181897 -0.0678262 0.176208 -0.164699 
-0.0621778 0.16558 -0.148711 -0.0592831 0.155165 -0.13331 -0.0590113 0.14545 -0.120094 
-0.0597888 0.136016 -0.107752 -0.242153 0.271352 -0.254767 -0.228977 0.255826 -0.245541 
-0.206124 0.244341 -0.238901 -0.18046 0.234422 -0.231493 -0.152505 0.225777 -0.223459 
-0.12817 0.216403 -0.212484 -0.106333 0.206525 -0.199482 -0.0911113 0.195937 -0.184924 
-0.079732 0.184937 -0.169463 -0.0737197 0.174029 -0.154508 -0.0703097 0.163166 -0.139799 
-0.0694398 0.152878 -0.126648 -0.0695859 0.142821 -0.114121 -0.258937 0.253085 -0.267309 
-0.242249 0.240997 -0.252875 -0.216349 0.232942 -0.24258 -0.189141 0.226164 -0.233243 
-0.160867 0.220425 -0.224686 -0.136895 0.213542 -0.214447 -0.115889 0.205871 -0.203048 
-0.101279 0.19694 -0.190106 -0.0903821 0.187275 -0.176269 -0.084463 0.177195 -0.162212 
-0.0809574 0.166912 -0.148048 -0.0797654 0.156883 -0.134798 -0.0794988 0.146955 -0.121914 
-0.27451 0.223021 -0.279795 -0.25387 0.215987 -0.260334 -0.224702 0.2125 -0.246797 
-0.195888 0.209808 -0.235893 -0.167362 0.207764 -0.227134 -0.143928 0.204187 -0.217779 
-0.124006 0.199551 -0.208014 -0.110313 0.19309 -0.196654 -0.100237 0.185567 -0.184369 
-0.0947005 0.177015 -0.171123 -0.091365 0.167962 -0.157412 -0.0900257 0.158719 -0.143958 
-0.0894849 0.149399 -0.130608 -0.278975 0.176714 -0.287801 -0.255935 0.177635 -0.265793 
-0.225088 0.18055 -0.251 -0.195871 0.183222 -0.239962 -0.167982 0.185697 -0.231985 
-0.145799 0.1861 -0.223995 -0.127551 0.185074 -0.215996 -0.115377 0.181728 -0.206107 
-0.106731 0.177034 -0.195121 -0.10215 0.170788 -0.182399 -0.0995388 0.163789 -0.168835 
-0.0985008 0.156158 -0.154922 -0.098092 0.148274 -0.14087 -0.277539 0.121777 -0.293428 
-0.252923 0.132196 -0.27019 -0.22124 0.142487 -0.255196 -0.19226 0.151202 -0.244786 
-0.165481 0.158633 -0.238112 -0.144928 0.163376 -0.231741 -0.128668 0.166264 -0.225581 
-0.118334 0.166375 -0.217104 -0.111441 0.164874 -0.207282 -0.108118 0.161348 -0.194931 
-0.106526 0.15684 -0.181352 -0.106028 0.151261 -0.166845 -0.105966 0.145254 -0.151966 
-0.259377 0.0643739 -0.290413 -0.236512 0.0833972 -0.269426 -0.206991 0.100309 -0.256514 
-0.180395 0.114388 -0.248277 -0.156183 0.126159 -0.24385 -0.138206 0.134755 -0.23962 
-0.12453 0.141162 -0.235526 -0.11647 0.144621 -0.228528 -0.111671 0.14637 -0.219845 
-0.109937 0.145951 -0.207863 -0.109689 0.144481 -0.194281 -0.110095 0.141695 -0.179275 
-0.110764 0.138382 -0.1637 -0.233835 0.0058823 -0.283586 -0.21419 0.0331161 -0.266384 
-0.188153 0.0563161 -0.256562 -0.164889 0.0754601 -0.25118 -0.143886 0.0912991 -0.249416 
-0.128904 0.103534 -0.247556 -0.118074 0.113284 -0.24563 -0.11248 0.120043 -0.240141 