# vtk DataFile Version 2.0
vtk output
ASCII
DATASET RECTILINEAR_GRID
DIMENSIONS 13 13 13
X_COORDINATES 13 float
-2.5 -2.29167 -2.08333 -1.875 -1.66667 -1.45833 -1.25 -1.04167 -0.833333 
-0.625 -0.416667 -0.208333 0 
Y_COORDINATES 13 float
-7.5 -7.29167 -7.08333 -6.875 -6.66667 -6.45833 -6.25 -6.04167 -5.83333 
-5.625 -5.41667 -5.20833 -5 
Z_COORDINATES 13 float
2.5 2.70833 2.91667 3.125 3.33333 3.54167 3.75 3.95833 4.16667 
4.375 4.58333 4.79167 5 
POINT_DATA 2197
VECTORS grad float
-0.222672 0.166898 -0.0498997 -0.195295 0.186385 -0.0266614 -0.16458 0.203079 -0.00985179 
-0.132899 0.218964 0.00509691 -0.100143 0.228072 0.0147179 -0.0671445 0.235656 0.0231402 
-0.0372451 0.234112 0.0270965 -0.00786222 0.231046 0.0303085 0.0141055 0.221165 0.0305131 
0.0352306 0.21051 0.0303759 0.0473095 0.197855 0.0289966 0.0587985 0.185069 0.0275363 
0.0625144 0.173825 0.0261178 -0.201093 0.131437 -0.0497981 -0.176204 0.152493 -0.0290847 
-0.148657 0.169637 -0.0140488 -0.120341 0.185648 -0.000656482 -0.0916442 0.195365 0.0081914 
-0.0628618 0.203666 0.0160168 -0.0368941 0.204386 0.020222 -0.0113956 0.203842 0.0238239 
0.00811194 0.197504 0.0250101 0.0269387 0.190507 0.0259218 0.0384029 0.181279 0.0257504 
0.0493871 0.171905 0.0255084 0.0537008 0.163151 0.0251588 -0.178824 0.0982196 -0.0481642 
-0.156704 0.120445 -0.0300311 -0.132408 0.137925 -0.0167752 -0.107483 0.154031 -0.00493101 
-0.0826508 0.164314 0.00312374 -0.0578397 0.173287 0.0103259 -0.0355159 0.176025 0.0146706 
-0.0136065 0.177725 0.0185392 0.00357711 0.174536 0.0205263 0.0202237 0.170791 0.0222997 
0.0309964 0.164664 0.0231574 0.041386 0.158381 0.0239554 0.0461128 0.151942 0.0245443 
-0.154834 0.0706113 -0.0426995 -0.136179 0.0930068 -0.0272857 -0.115343 0.110537 -0.0158249 
-0.0938743 0.126659 -0.00550838 -0.07242 0.137404 0.0017032 -0.0509689 0.146939 0.00821618 
-0.0315692 0.151079 0.0124268 -0.0125115 0.15432 0.0162538 0.00268902 0.1533 0.0185905 
0.0174512 0.151796 0.0207579 0.02734 0.147952 0.0221977 0.0369109 0.143957 0.02359 
0.0415883 0.139396 0.0247906 -0.131306 0.0459874 -0.0365429 -0.115966 0.0681398 -0.0237164 
-0.0984319 0.0854888 -0.013982 -0.0802624 0.101447 -0.00514258 -0.0619783 0.112494 0.00122658 
-0.0436684 0.122437 0.00703995 -0.0269812 0.127733 0.0110531 -0.0105643 0.132256 0.0147662 
0.00277162 0.133079 0.0173422 0.0157575 0.133481 0.0197891 0.024752 0.131617 0.0216881 
0.0334861 0.129606 0.0235515 0.0380182 0.126712 0.0252571 -0.108733 0.0275187 -0.0289591 
-0.0963963 0.0485766 -0.0184478 -0.081841 0.0652662 -0.0102978 -0.0666435 0.0806912 -0.00283147 
-0.0511014 0.0917111 0.00269678 -0.0354817 0.10174 0.00778895 -0.0210701 0.107688 0.0114737 
-0.00685983 0.112956 0.0149239 0.00485625 0.114949 0.0175119 0.0162889 0.11657 0.0200019 
0.0243677 0.116058 0.0221073 0.0322277 0.115408 0.0241875 0.0364164 0.113742 0.0261773 
-0.0873996 0.0116953 -0.0213108 -0.0777551 0.0314429 -0.0128855 -0.0659108 0.0472998 -0.0061912 
-0.0534297 0.0620304 1.96951e-06 -0.0404 0.0728592 0.00472488 -0.0272468 0.08281 0.00911698 
-0.0149255 0.0892 0.0124467 -0.00274286 0.0949965 0.0155993 0.00746551 0.0979082 0.0181306 
0.0174495 0.100492 0.0205913 0.0246402 0.101088 0.022813 0.0316488 0.101554 0.0250191 
0.0354591 0.100921 0.0272001 -0.0682013 0.000427901 -0.0135515 -0.0607137 0.0184936 -0.00681748 
-0.0511187 0.0332193 -0.00135693 -0.0409135 0.0469782 0.00373498 -0.030001 0.0573336 0.00771382 
-0.0189292 0.0669233 0.0114422 -0.00837892 0.0733953 0.0143708 0.00208445 0.0793477 0.0171662 
0.0109783 0.0827442 0.0195227 0.0196938 0.0858503 0.0218294 0.026044 0.0871302 0.0240125 
0.0322399 0.0882909 0.0261875 0.0356116 0.0883562 0.0283995 -0.0505155 -0.00888252 -0.00605216 
-0.044903 0.00748631 -0.000778596 -0.0372963 0.0210225 0.00359324 -0.0291122 0.0337387 0.00770405 
-0.0200971 0.0435153 0.0109984 -0.0108949 0.0526304 0.014109 -0.00194678 0.0590349 0.016638 
0.00695899 0.0649877 0.01907 0.0146479 0.0686893 0.0212123 0.0221986 0.0721351 0.0233217 
0.0277585 0.0739184 0.0253995 0.0331887 0.0755933 0.0274753 0.0361272 0.076204 0.0296375 
-0.0350229 -0.0153552 0.00107036 -0.030877 -0.000705029 0.00521807 -0.02488 0.011557 0.00871144 
-0.0183474 0.0231278 0.0120154 -0.010911 0.0321724 0.0147116 -0.00327139 0.0406487 0.0172711 
0.00431938 0.0467689 0.0194024 0.011902 0.0524965 0.0214623 0.018545 0.0562425 0.0233332 
0.0250812 0.0597632 0.0251825 0.0299238 0.0617882 0.0270586 0.0346561 0.0637156 0.0289364 
0.0371694 0.0646499 0.0309316 -0.0210031 -0.0204524 0.00780061 -0.0181296 -0.00742365 0.0110134 
-0.0135405 0.00359522 0.0137623 -0.00845482 0.0140323 0.0163768 -0.00241268 0.022308 0.0185457 
0.00384467 0.0300974 0.0206144 0.0102261 0.0358489 0.0223709 0.0166282 0.0412609 0.0240755 
0.0223299 0.0449386 0.0256608 0.027952 0.0484193 0.0272326 0.0321407 0.050567 0.0288646 
0.0362358 0.0526278 0.0305004 0.0383551 0.0537799 0.032267 -0.00879073 -0.0238614 0.0140495 
-0.00695143 -0.0123349 0.0165618 -0.00352223 -0.00252126 0.0187304 0.000367211 0.00679652 0.0207995 
0.00524178 0.0142579 0.0225281 0.010338 0.0213015 0.02418 0.0156917 0.0265807 0.02559 
0.0210884 0.0315659 0.0269596 0.0259773 0.0350373 0.0282422 0.0308086 0.0383367 0.029515 
0.0344207 0.0404614 0.0308508 0.0379534 0.0425095 0.0321908 0.0397172 0.0437495 0.0336531 
0.00210938 -0.026246 0.0198396 0.00303208 -0.0160901 0.0217987 0.00544228 -0.00740466 0.0235018 
0.00828307 0.000855168 0.0251307 0.0121336 0.00751848 0.0264929 0.0162113 0.0138226 0.027795 
0.0206613 0.0186019 0.0288978 0.0251734 0.0231271 0.0299673 0.0293457 0.0263372 0.0309573 
0.0334793 0.029398 0.0319383 0.0365832 0.0314335 0.0329637 0.0396199 0.0334023 0.033992 
0.0410739 0.0346663 0.0351167 -0.195882 0.162601 -0.0440778 -0.173689 0.179641 -0.0194856 
-0.147249 0.194321 -0.00120096 -0.119581 0.208318 0.0152579 -0.090222 0.216494 0.0259722 
-0.0604832 0.22336 0.0353941 -0.033116 0.222427 0.0397244 -0.00614421 0.220195 0.0432062 
0.0143943 0.212021 0.0431636 0.0342017 0.203172 0.0427204 0.04587 0.192391 0.0408032 
0.0570075 0.181483 0.0387899 0.0608951 0.171734 0.0368382 -0.177325 0.131049 -0.0458455 
-0.156963 0.149451 -0.0238862 -0.133135 0.164631 -0.00752074 -0.108304 0.178878 0.00722546 
-0.0824554 0.187696 0.0171067 -0.0563773 0.195293 0.0258932 -0.0324555 0.19632 0.0305913 
-0.00889311 0.196253 0.0346079 0.00944587 0.191076 0.03582 0.0271913 0.185319 0.0367133 
0.0382584 0.177467 0.036338 0.04889 0.169479 0.0358799 0.0532526 0.1619 0.0353087 
-0.158144 0.101224 -0.0458495 -0.13985 0.120667 -0.0265638 -0.118702 0.136237 -0.0121073 
-0.0967292 0.150685 0.000951418 -0.074227 0.160091 0.00998461 -0.0516056 0.168363 0.0181121 
-0.0308886 0.171145 0.023052 -0.010489 0.173013 0.0274608 0.00576693 0.170517 0.0297142 
0.021552 0.167524 0.0317227 0.0319559 0.162336 0.032676 0.0420088 0.157005 0.0335604 
0.0466899 0.151449 0.0342132 -0.137406 0.075715 -0.0414441 -0.121767 0.0953969 -0.024934 
-0.103471 0.111083 -0.0123606 -0.0844064 0.125613 -0.000926768 -0.0648439 0.135471 0.00722132 
-0.0451693 0.144278 0.0146301 -0.0270558 0.1483 0.0194975 -0.00920249 0.151525 0.0239412 
0.00526166 0.15092 0.0267028 0.0193407 0.149879 0.0292732 0.0289259 0.146688 0.0310218 
0.0382181 0.143356 0.0327168 0.0428269 0.139457 0.0342028 -0.116944 0.0527226 -0.0361394 
-0.103881 0.0722984 -0.0222793 -0.0883257 0.0878985 -0.011519 -0.0720487 0.102348 -0.00165613 
-0.0552539 0.11251 0.00560571 -0.0383425 0.121709 0.0122823 -0.0226516 0.126755 0.017 
-0.00716406 0.131109 0.0213911 0.0056107 0.13211 0.0245269 0.0180772 0.13273 0.02752 
0.026835 0.131269 0.0299144 0.035351 0.129672 0.0322698 0.0398036 0.127236 0.0344585 
-0.097053 0.0349202 -0.0289801 -0.0863996 0.0536798 -0.0175108 -0.0733553 0.0687754 -0.00841929 
-0.059619 0.0828104 -1.60392e-05 -0.0452373 0.0929746 0.00635717 -0.0307103 0.102268 0.0122736 
-0.0170688 0.10789 0.0166827 -0.00357484 0.1129 0.0208405 0.00772175 0.114924 0.0240741 
0.0187686 0.116609 0.0272027 0.0266807 0.116325 0.0299346 0.0343883 0.115914 0.0326407 
0.0385124 0.114544 0.0352633 -0.0781142 0.0194805 -0.0216138 -0.0696521 0.037223 -0.0123145 
-0.0589152 0.0516538 -0.0047659 -0.0475198 0.0651259 0.00227596 -0.0353621 0.0751407 0.00779121 
-0.023033 0.0843777 0.012963 -0.011283 0.0903865 0.0170245 0.000370392 0.0958574 0.020901 
0.0102845 0.0986769 0.0241446 0.0200009 0.101195 0.0273163 0.027089 0.101867 0.0302728 
0.0340056 0.102418 0.0332152 0.0377688 0.101934 0.0361553 -0.0608149 0.00810985 -0.0138911 
-0.054169 0.0244897 -0.00638142 -0.0453884 0.0379793 -0.00015904 -0.0359898 0.0506322 0.00569069 
-0.0257307 0.0602381 0.0104008 -0.0152779 0.0691585 0.0148545 -0.00514768 0.0752281 0.0185015 
0.00492876 0.0808226 0.0220141 0.0136251 0.0840471 0.0251165 0.0221645 0.0870022 0.0281722 
0.0284661 0.0882449 0.0311585 0.0346216 0.0893759 0.0341403 0.0379685 0.0894669 0.0371975 
-0.0447582 -0.00142561 -0.00635664 -0.0397168 0.0135544 -0.000408852 -0.032686 0.026038 0.00462983 
-0.0250793 0.0377988 0.00940533 -0.0165361 0.0468963 0.0133642 -0.00778216 0.0553946 0.0171392 
0.000871461 0.0613887 0.0203616 0.00950837 0.0669655 0.0234918 0.0170792 0.0704323 0.0263962 
0.0245288 0.0736592 0.029275 0.030084 0.0753092 0.0322033 0.0355156 0.0768562 0.0351348 
0.0384483 0.0773827 0.0382051 -0.0305033 -0.00829999 0.000904872 -0.0267595 0.00522648 0.0056209 
-0.0211789 0.0166099 0.00968258 -0.0150667 0.0273729 0.0135548 -0.00797485 0.0358176 0.0168405 
-0.00066255 0.0437407 0.0199941 0.00672209 0.0494618 0.0227771 0.0141188 0.054816 0.0254982 
0.0206978 0.0582893 0.0281225 0.027184 0.0615488 0.0307358 0.0320511 0.0633687 0.0334787 
0.0368127 0.0650947 0.0362299 0.0393346 0.0658539 0.0391625 -0.0175095 -0.0138374 0.0077914 
-0.0149109 -0.00169956 0.0114674 -0.0106155 0.00859955 0.0146847 -0.00582904 0.0183664 0.0177692 
-3.27163e-05 0.0261213 0.0204469 0.00599083 0.0334235 0.023033 0.0122326 0.0387961 0.0253887 
0.0185108 0.0438471 0.027706 0.0241864 0.0472283 0.030021 0.0297934 0.0504198 0.0323357 
0.0340242 0.0523068 0.0348323 0.0381652 0.0541087 0.0373407 0.0403014 0.0550104 0.0400539 
-0.00606324 -0.0177339 0.0142177 -0.00442301 -0.00690509 0.0170889 -0.00121024 0.00232906 0.0196246 
0.00245772 0.0111016 0.0220633 0.00714968 0.0181214 0.024213 0.012072 0.0247469 0.0262976 
0.0173258 0.0296783 0.0282411 0.0226349 0.0343273 0.0301612 0.0275152 0.0374953 0.0321308 
0.0323468 0.0404951 0.0341061 0.0360045 0.042323 0.0362818 0.0395857 0.0440744 0.0384707 
0.0413673 0.045008 0.0408645 0.0042278 -0.0206216 0.02017 0.00500538 -0.0109986 0.0223861 
0.00725439 -0.00276826 0.0243546 0.00992933 0.00505898 0.0262515 0.0136407 0.0113569 0.0279429 
0.0175853 0.0173107 0.029588 0.0219585 0.0217786 0.03115 0.0264032 0.0259989 0.0326983 
0.0305709 0.0289103 0.0343208 0.0347071 0.0316729 0.0359517 0.0378496 0.0333911 0.0377787 
0.0409273 0.0350412 0.0396185 0.0423932 0.0359603 0.0416465 -0.169718 0.15545 -0.0354228 
-0.15162 0.170031 -0.0118269 -0.129063 0.182629 0.00617275 -0.105216 0.194653 0.0225524 
-0.0793984 0.201895 0.0333997 -0.0531372 0.208062 0.0430023 -0.0286013 0.207894 0.0475096 
-0.00435296 0.20667 0.0511678 0.0145207 0.200521 0.0512157 0.0327837 0.193811 0.0508535 
0.0439515 0.185325 0.0489363 0.0546566 0.176722 0.0469178 0.0587391 0.168886 0.0449393 
-0.153908 0.128126 -0.0385871 -0.137196 0.143941 -0.0174123 -0.11676 0.157124 -0.0012164 
-0.0952457 0.169545 0.0135382 -0.0723423 0.177463 0.0236207 -0.0491263 0.184368 0.032652 
-0.0274735 0.185838 0.0376002 -0.00608118 0.186402 0.0418679 0.010913 0.182667 0.0432786 
0.0274074 0.178443 0.0443646 0.0380084 0.172338 0.0441471 0.0482249 0.16611 0.0438444 
0.0526438 0.160082 0.0434379 -0.137531 0.102045 -0.0399396 -0.122394 0.118828 -0.0212228 
-0.104135 0.132482 -0.00682229 -0.0849713 0.14523 0.00632876 -0.0648583 0.153756 0.0156269 
-0.0445316 0.161331 0.0240581 -0.0255757 0.164271 0.0293192 -0.00684837 0.166439 0.034052 
0.00835882 0.164876 0.0366116 0.023166 0.162888 0.0389244 0.0331531 0.158958 0.0401906 
0.0428259 0.1549 0.0413887 0.0474573 0.150559 0.0423942 -0.119739 0.0790723 -0.0367629 
-0.106646 0.0961547 -0.0205963 -0.0907035 0.109995 -0.00797004 -0.0739367 0.122897 0.00363141 
-0.0563043 0.13186 0.012096 -0.0384772 0.139937 0.0198548 -0.0217531 0.143929 0.0251091 
-0.00521299 0.14724 0.0299461 0.00843837 0.147242 0.0331202 0.0217615 0.146868 0.0361054 
0.0310176 0.144594 0.0383163 0.0400086 0.142196 0.0404767 0.0445425 0.13924 0.0424948 
-0.10209 0.0581331 -0.0325524 -0.0910007 0.0752261 -0.0188361 -0.0772996 0.0890715 -0.00792774 
-0.0628425 0.101977 0.00216775 -0.0475566 0.11124 0.00978949 -0.0320841 0.119683 0.0168546 
-0.017447 0.124538 0.0220167 -0.00294923 0.128795 0.0268615 0.00922892 0.130125 0.0305057 
0.0211435 0.131122 0.0340134 0.029661 0.130275 0.0370071 0.037957 0.129308 0.0399672 
0.0423247 0.127567 0.0428546 -0.084737 0.0413882 -0.0262097 -0.0755693 0.0578961 -0.0147375 
-0.063952 0.0713721 -0.00543098 -0.0516256 0.0839705 0.00324855 -0.0384092 0.0932499 0.0100083 
-0.0249926 0.101783 0.016336 -0.0121437 0.107113 0.0212293 0.000610553 0.111909 0.0258834 
0.0114859 0.114073 0.0296997 0.0221478 0.115938 0.0334208 0.0299109 0.116048 0.0368633 
0.0374849 0.116044 0.0402877 0.0415442 0.115163 0.043749 -0.0681011 0.0266746 -0.0195111 
-0.0607068 0.0424144 -0.010096 -0.0510237 0.055373 -0.00228526 -0.0406779 0.0675263 0.00506107 
-0.0293828 0.0766836 0.0109775 -0.0178741 0.0851668 0.0165722 -0.00668662 0.0908033 0.0211456 
0.0044473 0.0959654 0.0255487 0.0140957 0.0987645 0.0294339 0.0235753 0.101295 0.0332604 
0.0305983 0.102164 0.0370197 0.0374611 0.102924 0.0407746 0.0411829 0.102736 0.0446712 
-0.0527004 0.0154597 -0.0121996 -0.0468241 0.0301163 -0.00451975 -0.0388173 0.0423021 0.0019781 
-0.0301939 0.0537726 0.00813377 -0.0205646 0.0625693 0.0132393 -0.010709 0.0707644 0.0181085 
-0.000964736 0.0764166 0.0222739 0.00876101 0.0816451 0.026322 0.0173131 0.0847354 0.0300985 
0.0257318 0.0875828 0.0338442 0.0320394 0.0888685 0.0376928 0.0382093 0.0900523 0.0415482 
0.0415436 0.0902722 0.0456417 -0.0383038 0.00590519 -0.00496104 -0.0337928 0.0194269 0.00118455 
-0.0273058 0.0307714 0.00649429 -0.0202468 0.0414857 0.0115621 -0.0121389 0.0498289 0.0158976 
-0.00379498 0.0576387 0.0200685 0.00462064 0.0631852 0.0238021 0.0130482 0.0683543 0.0274629 
0.0205758 0.0715929 0.0310566 0.028001 0.074612 0.0346427 0.033621 0.0761704 0.0384704 
0.0391233 0.0776336 0.0423138 0.0420685 0.0781374 0.0464724 -0.0253633 -0.00124174 0.00217188 
-0.0219961 0.0110703 0.00707446 -0.0168016 0.0214742 0.011377 -0.0110782 0.0313258 0.0155059 
-0.00428221 0.039081 0.0191311 0.00275511 0.0463646 0.022643 0.0100081 0.0516289 0.0259103 
0.017297 0.0565566 0.0291368 0.023904 0.0597359 0.0324403 0.0304336 0.0627164 0.0357525 
0.0354064 0.0643387 0.0393992 0.0402777 0.0658724 0.0430677 0.0428317 0.0664799 0.0471004 
-0.013486 -0.00713005 0.00899901 -0.011149 0.00401078 0.0128337 -0.00711823 0.0134779 0.016249 
-0.00259712 0.0224604 0.019543 0.00301211 0.0295926 0.0225121 0.00886618 0.0363084 0.025408 
0.0150581 0.0412262 0.0282085 0.0213062 0.0458442 0.0309931 0.027062 0.0488825 0.033961 
0.0327617 0.0517413 0.0369497 0.0371256 0.0533447 0.0403339 0.0414023 0.0548663 0.043744 
0.0435838 0.055508 0.0475444 -0.00291325 -0.0114737 0.0154509 -0.0014672 -0.00145681 0.0184325 
0.00155795 0.00707808 0.0211078 0.0050402 0.0151839 0.0236945 0.00961629 0.02165 0.026074 
0.0144385 0.0277472 0.0284068 0.019694 0.0322392 0.03074 0.0250216 0.0364636 0.0330733 
0.0300109 0.0392609 0.0356498 0.0349617 0.0418959 0.0382539 0.0387635 0.0433789 0.0412759 
0.0424903 0.0447868 0.0443251 0.0443223 0.0453774 0.0477624 0.00665706 -0.0148473 0.0214578 
0.00728621 -0.00587596 0.0237279 0.00940156 0.00177471 0.0257705 0.0119471 0.00904308 0.0277472 
0.0155921 0.0148556 0.0295996 0.0194846 0.0203406 0.0314239 0.0238924 0.0243932 0.0333116 
0.0283861 0.0282071 0.0352099 0.0326763 0.0307352 0.0373817 0.0369434 0.0331173 0.0395847 
0.0402298 0.03445 0.0422026 0.0434523 0.0357143 0.0448477 0.0449676 0.0362314 0.0478609 
-0.145098 0.147987 -0.0268889 -0.130601 0.160313 -0.00473526 -0.111599 0.171008 0.0125754 
-0.0912927 0.181231 0.0284842 -0.0688261 0.187649 0.0392045 -0.0458735 0.193212 0.0487573 
-0.0240593 0.193809 0.0533723 -0.00243484 0.193578 0.0571642 0.0148192 0.189396 0.0573907 
0.0315766 0.184766 0.057212 0.0422469 0.178551 0.0554648 0.0525202 0.172234 0.0536152 
0.0567843 0.16635 0.0517956 -0.13178 0.124715 -0.0311606 -0.118292 0.138152 -0.0111683 
-0.100961 0.149493 0.00450322 -0.0825189 0.160227 0.018924 -0.0624019 0.167333 0.028974 
-0.041908 0.173623 0.0380406 -0.0224342 0.175554 0.043157 -0.00313044 0.176759 0.047615 
0.0125645 0.174455 0.0492706 0.0278494 0.171752 0.0506076 0.0380031 0.167411 0.0506703 
0.0478221 0.162962 0.0506499 0.0523005 0.158547 0.0505611 -0.117953 0.102252 -0.0336247 
-0.105617 0.11658 -0.0158295 -0.0900046 0.128451 -0.00179433 -0.0734433 0.139611 0.0111524 
-0.0555878 0.147326 0.0205061 -0.0374412 0.154265 0.0290514 -0.0201719 0.157396 0.0345426 
-0.00304891 0.159893 0.0395248 0.0111571 0.159288 0.0424023 0.0250317 0.15833 0.0450407 
0.034636 0.155704 0.0467036 0.0439618 0.15297 0.0483029 0.0485615 0.149923 0.0497887 
-0.102855 0.081811 -0.0315696 -0.0920311 0.096483 -0.0160612 -0.07825 0.108594 -0.00365526 
-0.0636129 0.119963 0.00785258 -0.0477994 0.12809 0.0164448 -0.0317211 0.135487 0.024381 
-0.0163166 0.139482 0.0299303 -0.00102452 0.14291 0.0350817 0.0118678 0.143555 0.0386638 
0.0244874 0.143884 0.0420675 0.0334606 0.142582 0.0448061 0.0421961 0.141174 0.0475014 
0.0466845 0.139247 0.0501714 -0.0877907 0.0629506 -0.0283818 -0.0784722 0.0777278 -0.015087 
-0.0664772 0.0899169 -0.00426997 -0.0537073 0.101357 0.00582974 -0.0398369 0.109768 0.0136418 
-0.0257188 0.117497 0.0209392 -0.0120689 0.122193 0.0264541 0.00150299 0.126384 0.031672 
0.0131448 0.128081 0.0358076 0.0245672 0.129494 0.0398202 0.0329023 0.129321 0.0434648 
0.041036 0.129044 0.0470854 0.0453584 0.128081 0.0507871 -0.0727972 0.0473504 -0.0228578 
-0.0649701 0.0617409 -0.0116255 -0.0546667 0.0736747 -0.00231433 -0.0436465 0.0848973 0.00644075 
-0.0315155 0.0933276 0.0134343 -0.0191345 0.10113 0.0200316 -0.00701165 0.106193 0.0253215 
0.00506815 0.1108 0.0303935 0.0155897 0.113137 0.0347712 0.0259342 0.115216 0.03907 
0.0336165 0.115771 0.0432703 0.0411252 0.116226 0.0474642 0.0451686 0.115904 0.0518832 
-0.0583175 0.033456 -0.0168443 -0.0518932 0.047295 -0.00752365 -0.0431805 0.0588377 0.000365831 
-0.0338054 0.0697156 0.00784101 -0.023304 0.0780388 0.0140215 -0.0125492 0.0857872 0.0199108 
-0.00185737 0.0910681 0.0249125 0.00882394 0.0959377 0.0297663 0.0182806 0.098741 0.0342689 
0.0275981 0.10131 0.0387316 0.0346333 0.102415 0.0433373 0.0415197 0.103426 0.0479525 
0.0452569 0.10359 0.0529273 -0.0447225 0.0224995 -0.00998758 -0.0395488 0.035503 -0.0023188 
-0.0322528 0.0464206 0.00429375 -0.0243425 0.0567344 0.0106005 -0.0152818 0.0647325 0.0159773 
-0.00596215 0.0722096 0.0211449 0.00346405 0.0774506 0.0257498 0.012908 0.082319 0.0302609 
0.0213952 0.0852881 0.0346864 0.0297736 0.0880414 0.0391021 0.0361713 0.0893944 0.0438547 
0.0424397 0.0906561 0.0486293 0.0458238 0.0910401 0.0538819 -0.0319186 0.0130193 -0.00308744 
-0.0278955 0.0251248 0.00310016 -0.0219054 0.0353472 0.00853996 -0.015346 0.0450245 0.0137633 
-0.00761797 0.0526121 0.0183629 0.000372973 0.0597295 0.0228222 0.00861923 0.0648239 0.0269921 
0.016908 0.069581 0.0311138 0.0244757 0.0725922 0.0353703 0.0319614 0.0754049 0.0396422 
0.0377349 0.0768801 0.0444075 0.0433967 0.0782681 0.0492049 0.0464203 0.0787631 0.0545719 
-0.0202619 0.00567975 0.00387561 -0.0172445 0.0167968 0.00882954 -0.0123995 0.0262222 0.0132476 
-0.00702552 0.0351579 0.0175106 -0.000473845 0.0422111 0.0213716 0.00634282 0.0488408 0.0251421 
0.0135334 0.0536335 0.0288216 0.0207862 0.0581201 0.032486 0.0275068 0.0609938 0.0364406 
0.0341669 0.0636841 0.0404282 0.0393357 0.0651005 0.0450115 0.0444072 0.0664338 0.0496338 
0.0470597 0.0668818 0.0548783 -0.009487 -0.000493657 0.0106113 -0.00739721 0.00965131 0.0144867 
-0.00360274 0.0182741 0.0179877 0.000685181 0.0264563 0.0213804 0.00615579 0.0329436 0.0245444 
0.0118925 0.0390495 0.027657 0.0181039 0.0434884 0.0308324 0.0243944 0.0476495 0.0340184 
0.0303168 0.0503224 0.0376088 0.0361973 0.0528262 0.0412453 0.0407843 0.0541232 0.0455432 
0.045287 0.0553414 0.0498842 0.0475788 0.0556964 0.0548711 0.000205757 -0.00523588 0.0170682 
0.00146373 0.00395715 0.0200552 0.00432378 0.0117706 0.0227675 0.00764758 0.0191846 0.0254003 
0.012154 0.0250672 0.0279187 0.0169266 0.0306051 0.0304112 0.0222528 0.034626 0.0330657 
0.0276714 0.0383941 0.0357472 0.0328554 0.0407886 0.0388973 0.0380127 0.043027 0.0421006 
0.0420462 0.0441302 0.0459859 0.0460064 0.0451594 0.0499157 0.0479504 0.0453651 0.054479 
0.00903985 -0.00906005 0.0231199 0.0095197 -0.000761908 0.0253494 0.0115191 0.00627964 0.0273715 
0.0139585 0.0129574 0.0293335 0.0175814 0.0182491 0.0312606 0.0214706 0.023229 0.0331798 
0.0259815 0.0268289 0.035326 0.0305959 0.0301988 0.0375101 0.0350931 0.0323047 0.040195 
0.039577 0.034267 0.0429369 0.0430918 0.0351705 0.046354 0.0465433 0.0360049 0.0498151 
0.0481663 0.0360678 0.053878 -0.123977 0.139819 -0.0186294 -0.111964 0.150354 0.00107086 
-0.0957717 0.159551 0.0167771 -0.0783693 0.168362 0.0313272 -0.0588239 0.174204 0.0413311 
-0.0387963 0.179378 0.0503121 -0.0194555 0.18074 0.0548771 -0.000229117 0.181466 0.0587062 
0.0155075 0.179125 0.0593106 0.0308476 0.176436 0.0595485 0.041027 0.172441 0.0583561 
0.0508699 0.168362 0.0570705 0.0552859 0.164521 0.0558304 -0.112575 0.1202 -0.0233532 
-0.101342 0.131729 -0.00544571 -0.08647 0.141579 0.00889748 -0.0705446 0.150943 0.0222089 
-0.0528528 0.157436 0.0316962 -0.0347636 0.163283 0.0403232 -0.0172651 0.165719 0.0454223 
0.000134937 0.167587 0.0499334 0.0146339 0.166692 0.0519383 0.0288032 0.165483 0.0536584 
0.0385527 0.162943 0.0542792 0.0480139 0.160316 0.0548284 0.0525591 0.157656 0.0554041 
-0.100722 0.101067 -0.0263914 -0.0903793 0.113407 -0.0103178 -0.0768668 0.123796 0.00265108 
-0.0624366 0.13362 0.0147211 -0.04654 0.140682 0.0236559 -0.0303135 0.147122 0.0318851 
-0.0145619 0.150519 0.0374001 0.00111053 0.153408 0.0424627 0.0144232 0.153819 0.0456844 
0.0274678 0.153948 0.048697 0.0367663 0.152735 0.0509461 0.0458205 0.151435 0.0531454 
0.0504294 0.149865 0.0554002 -0.0877446 0.0831476 -0.0252153 -0.0785661 0.0958376 -0.0110785 
-0.0665097 0.106482 0.000487746 -0.0536201 0.116535 0.0113099 -0.0393728 0.123959 0.0196016 
-0.02482 0.130791 0.0273239 -0.0105767 0.134867 0.0329595 0.00361499 0.138483 0.0382472 
0.0158701 0.139849 0.0422267 0.027905 0.140959 0.0460575 0.0367 0.140756 0.0494722 
0.0452836 0.140467 0.0528597 0.0497927 0.139759 0.0564528 -0.0747476 0.066424 -0.0228884 
-0.0667417 0.079264 -0.0106445 -0.0561164 0.0900194 -0.000461512 -0.0447329 0.100171 0.00912483 
-0.0320664 0.107838 0.0167429 -0.0191111 0.114945 0.0239182 -0.00629714 0.119556 0.0295787 
0.00649331 0.123752 0.0349867 0.0177352 0.125903 0.0395753 0.0288012 0.127822 0.0440707 
0.0370848 0.128455 0.0484833 0.0451869 0.129005 0.0528905 0.049554 0.129007 0.0576685 
-0.0617103 0.0521663 -0.0181881 -0.0548942 0.0647439 -0.00774625 -0.0456486 0.0753106 0.00109326 
-0.0356997 0.0852952 0.0094689 -0.0244727 0.0929572 0.0163504 -0.0129581 0.100097 0.0228958 
-0.00141046 0.10495 0.0283839 0.0101427 0.109423 0.0336958 0.0204632 0.112007 0.0385867 
0.0306437 0.114377 0.0434298 0.0383999 0.115492 0.0484947 0.045998 0.116524 0.0535742 
0.0501365 0.116922 0.0592207 -0.0490541 0.0393017 -0.0128989 -0.0433777 0.0514709 -0.00414924 
-0.0354468 0.0617256 0.00340328 -0.0268632 0.0714261 0.0106093 -0.0169996 0.0789684 0.016743 
-0.006848 0.0860251 0.0226356 0.00349965 0.0909881 0.0278767 0.01388 0.0956021 0.0330092 
0.0233125 0.0984657 0.038074 0.0326373 0.101131 0.0431311 0.0398598 0.102564 0.0486821 
0.0469453 0.103917 0.0542653 0.0508267 0.10456 0.0605942 -0.0370542 0.0288365 -0.0065955 
-0.0324313 0.0403457 0.000651181 -0.0257031 0.0500761 0.00701402 -0.0183655 0.0592916 0.013121 
-0.00973414 0.0665153 0.0184879 -0.000811723 0.073291 0.0236883 0.00845009 0.0781346 0.0285538 
0.0177685 0.0826563 0.0333635 0.0263704 0.0855335 0.0383807 0.034891 0.0882238 0.0434216 
0.0415692 0.0896992 0.0491723 0.0481272 0.0910953 0.0549693 0.0517026 0.0917232 0.0616597 
-0.0256901 0.0196424 -0.000130376 -0.0220591 0.0304269 0.00574611 -0.0164595 0.0395655 0.0109964 
-0.0102901 0.0482278 0.0160653 -0.00281646 0.0550565 0.0206735 0.00495069 0.0614727 0.0251781 
0.0131832 0.0661051 0.0296141 0.0214932 0.0704401 0.0340387 0.0292899 0.0732259 0.0388982 
0.0370283 0.0758355 0.0438072 0.0431563 0.0772462 0.0495965 0.0491792 0.0785788 0.0554434 
0.0524305 0.0790966 0.0622912 -0.0152479 0.0122913 0.0065692 -0.0125194 0.0222574 0.0112681 
-0.00794115 0.0307065 0.0155175 -0.00282741 0.0387165 0.0196369 0.00359685 0.0450393 0.0234983 
0.010316 0.0509825 0.0273016 0.0176011 0.0552702 0.03123 0.0249805 0.059282 0.0351793 
0.0320085 0.061824 0.0397213 0.0389967 0.0641989 0.0443306 0.0445661 0.0653906 0.0499253 
0.0500429 0.0665052 0.0555842 0.052944 0.0667754 0.0622934 -0.00554376 0.00598202 0.0131411 
-0.00366816 0.0151336 0.0167896 -4.6015e-05 0.0228844 0.0201216 0.00408171 0.0302297 0.0233619 
0.00952352 0.0360219 0.0265023 0.015261 0.0414646 0.0296202 0.0216494 0.0453704 0.0330124 
0.0281462 0.0490201 0.0364503 0.0344312 0.0512765 0.0405945 0.0406921 0.0533745 0.0448191 
0.0457065 0.0543133 0.0500896 0.0506395 0.0551765 0.0554283 0.053189 0.0551839 0.0618266 
0.00325457 0.000951306 0.0195563 0.00433829 0.00929334 0.0223107 0.00708426 0.016335 0.0248275 
0.0103114 0.0230003 0.0272754 0.014853 0.0282315 0.0297264 0.0196902 0.0331402 0.0321781 
0.025244 0.0366183 0.0349989 0.0309173 0.0398581 0.0378813 0.0364906 0.0417775 0.0415294 
0.0420525 0.0435469 0.0452645 0.0465162 0.044191 0.0500521 0.0509083 0.0447617 0.0549084 
0.0531044 0.0444878 0.0607842 0.0113173 -0.00324347 0.0256302 0.0116459 0.00433265 0.0276049 
0.0135696 0.0106984 0.0293922 0.0159552 0.0167137 0.0311252 0.0196562 0.0214041 0.0329315 
0.0236532 0.0257965 0.0347543 0.0284223 0.0288588 0.0370069 0.0333201 0.0316996 0.0393313 
0.0382158 0.033295 0.042447 0.0431112 0.0347489 0.0456528 0.0470457 0.0351239 0.0498874 
0.0509176 0.0354286 0.054189 0.0527801 0.0349191 0.0594483 -0.104854 0.131974 -0.0112134 
-0.0949395 0.140973 0.00597401 -0.0812108 0.148904 0.0199557 -0.066378 0.156527 0.0330093 
-0.0494536 0.161926 0.0421745 -0.0320585 0.166825 0.0504649 -0.0149521 0.168938 0.0549091 
0.00210624 0.170587 0.0587123 0.0164734 0.169981 0.0596902 0.0305348 0.169119 0.060347 
0.0402845 0.167257 0.0597666 0.0497529 0.165329 0.0591055 0.0543255 0.163524 0.0585461 
-0.0950968 0.115697 -0.0161476 -0.0857725 0.125572 -0.00039665 -0.0730534 0.134135 0.012495 
-0.0593518 0.142319 0.024559 -0.0438318 0.148315 0.0333603 -0.0279026 0.153818 0.0414275 
-0.012179 0.156769 0.0464334 0.00351028 0.159295 0.050929 0.0169517 0.159759 0.0532689 
0.0301376 0.15999 0.0553638 0.0395647 0.159221 0.056588 0.0487466 0.158388 0.0577555 
0.0533951 0.157523 0.0590919 -0.0849505 0.0996359 -0.0195372 -0.076297 0.110232 -0.00526955 
-0.0646207 0.119319 0.00650722 -0.0520695 0.127969 0.0175629 -0.0379205 0.134477 0.0259548 
-0.023412 0.140502 0.0337473 -0.00900988 0.144194 0.0392057 0.00537452 0.147497 0.0442751 
0.0179263 0.148921 0.0478175 0.0302698 0.150131 0.0511864 0.0393649 0.150349 0.0540571 
0.048248 0.150503 0.0568954 0.0529334 0.150488 0.0600154 -0.0738298 0.0841147 -0.0190657 
-0.0660501 0.0950487 -0.00639806 -0.0554996 0.104387 0.00420145 -0.0441471 0.113262 0.0142023 
-0.0312857 0.12007 0.0220711 -0.0180849 0.126411 0.0294602 -0.0048506 0.130602 0.0350984 
0.00838923 0.134435 0.0404446 0.020142 0.136539 0.0447907 0.0317259 0.138447 0.0490232 
0.0404651 0.139385 0.0531452 0.0490189 0.140259 0.0572601 0.0536438 0.140867 0.0618831 
-0.0626553 0.0694491 -0.0174504 -0.05577 0.0805546 -0.00636571 -0.0463382 0.0900136 0.00305552 
-0.0361692 0.098996 0.0119952 -0.024554 0.105991 0.0192986 -0.0126133 0.112539 0.0262339 
-0.000496046 0.117102 0.0319536 0.0116506 0.121335 0.0374707 0.0226316 0.123971 0.0424755 
0.0334802 0.126426 0.0474221 0.0418547 0.127922 0.0526321 0.050068 0.129356 0.0578593 
0.0546019 0.130429 0.0638337 -0.05137 0.056548 -0.0134761 -0.0454211 0.0674828 -0.00393911 
-0.0370934 0.076795 0.00430176 -0.0280771 0.0856375 0.0121674 -0.0176223 0.0925895 0.0188182 
-0.00684383 0.0991162 0.0251956 0.00426124 0.103791 0.0307943 0.0154207 0.108157 0.0362632 
0.0256861 0.111018 0.0416277 0.0358498 0.113708 0.0469803 0.0438411 0.115433 0.0529415 
0.0516909 0.117096 0.0589423 0.0560713 0.11831 0.0659551 -0.0403624 0.0447507 -0.00883236 
-0.0353321 0.0553868 -0.000771922 -0.0280749 0.0644412 0.00631795 -0.0201732 0.0730377 0.0131269 
-0.0108336 0.0798418 0.0190971 -0.00117043 0.0862425 0.0248786 0.00896025 0.09091 0.0302702 
0.0191688 0.0952886 0.035597 0.0287291 0.098236 0.0411817 0.0382156 0.101021 0.0467958 
0.0458027 0.102824 0.0533253 0.0532659 0.104564 0.0599144 0.0574588 0.105761 0.0677512 
-0.0298331 0.0348548 -0.00303573 -0.0256906 0.0449714 0.00367071 -0.0194463 0.0535767 0.00966017 
-0.0125937 0.0617444 0.0154421 -0.00429123 0.0682198 0.0206836 0.00433749 0.0743142 0.0258036 
0.0135589 0.0787707 0.0308401 0.0228791 0.082954 0.0358627 0.0317524 0.0857498 0.0414277 
0.040575 0.0883879 0.0470544 0.0477214 0.0900077 0.0538373 0.0547585 0.0915611 0.0606957 
0.0587057 0.0924735 0.0689871 -0.0198123 0.0260283 0.00303377 -0.0165293 0.0355615 0.00848172 
-0.0112569 0.0436546 0.0134204 -0.00540869 0.0513309 0.0182115 0.00190011 0.0574105 0.0227135 
0.00953754 0.0631308 0.0271504 0.0178771 0.0672987 0.0317618 0.0263337 0.0712078 0.0364023 
0.0345185 0.0737646 0.0418185 0.0426723 0.0761678 0.0473228 0.0493479 0.0775144 0.0541687 
0.0559271 0.0787921 0.061102 0.0595927 0.0793371 0.0695947 -0.010529 0.0187526 0.0094989 
-0.00806453 0.0276094 0.0138269 -0.00370446 0.0350991 0.0177866 0.00120433 0.042193 0.0216396 