# vtk DataFile Version 2.0
vtk output
ASCII
DATASET RECTILINEAR_GRID
DIMENSIONS 13 13 13
X_COORDINATES 13 float
7.5 7.70833 7.91667 8.125 8.33333 8.54167 8.75 8.95833 9.16667 
9.375 9.58333 9.79167 10 
Y_COORDINATES 13 float
7.5 7.70833 7.91667 8.125 8.33333 8.54167 8.75 8.95833 9.16667 
9.375 9.58333 9.79167 10 
Z_COORDINATES 13 float
5 5.20833 5.41667 5.625 5.83333 6.04167 6.25 6.45833 6.66667 
6.875 7.08333 7.29167 7.5 
POINT_DATA 2197
VECTORS grad float
0.0061382 -0.131874 0.153852 0.0167001 -0.134349 0.143119 0.0248569 -0.136832 0.131407 
0.0263406 -0.138723 0.11986 0.0261132 -0.140463 0.108357 0.0213395 -0.140934 0.0982545 
0.0156787 -0.141157 0.0884256 0.00779435 -0.139617 0.0800197 -0.000400311 -0.137831 0.0718123 
-0.00887337 -0.134211 0.064689 -0.0173712 -0.130428 0.0576621 -0.021647 -0.125201 0.0514665 
-0.0257432 -0.119913 0.0453063 0.00340451 -0.111918 0.149489 0.0139332 -0.114992 0.138453 
0.0221825 -0.118165 0.126455 0.0241211 -0.120819 0.114655 0.0244416 -0.12334 0.102905 
0.0204743 -0.124638 0.0926473 0.0156704 -0.125697 0.0826813 0.00873195 -0.125098 0.0743026 
0.00149566 -0.124269 0.0661453 -0.0061233 -0.12173 0.0592573 -0.0137763 -0.11904 0.052482 
-0.0176637 -0.114964 0.0466776 -0.0213909 -0.110828 0.0409144 0.000422371 -0.0918775 0.143282 
0.0108345 -0.0956244 0.132329 0.0191193 -0.0995608 0.120439 0.0214912 -0.103045 0.108713 
0.0223468 -0.106413 0.0970277 0.0191686 -0.108583 0.0868374 0.0152032 -0.110518 0.0769387 
0.00918106 -0.110865 0.0687041 0.00287183 -0.11099 0.0607016 -0.00391839 -0.109497 0.0540825 
-0.0107514 -0.107861 0.0475864 -0.0142587 -0.104878 0.0421562 -0.0176245 -0.101838 0.0367714 
-0.00331987 -0.075005 0.132423 0.00673878 -0.0791955 0.122421 0.0148813 -0.0836512 0.11152 
0.0176117 -0.0877546 0.100624 0.0189542 -0.0917678 0.089729 0.016535 -0.0946365 0.0801416 
0.0133819 -0.097282 0.0708092 0.00823814 -0.0984032 0.0630291 0.00281663 -0.0993119 0.0554656 
-0.00317656 -0.0986688 0.0492457 -0.00922057 -0.0978879 0.0431452 -0.0123574 -0.0957925 0.0381018 
-0.0153705 -0.0936412 0.0331033 -0.007257 -0.0589449 0.120372 0.0023874 -0.0635203 0.111541 
0.0103421 -0.0684325 0.101856 0.0134118 -0.0731011 0.0919845 0.0152288 -0.0777072 0.0820658 
0.013561 -0.0812314 0.0732186 0.0112132 -0.0845445 0.0645806 0.00693829 -0.0863961 0.0573346 
0.00239441 -0.0880437 0.0502829 -0.00280988 -0.0882003 0.0444955 -0.00807287 -0.0882244 0.0388205 
-0.0108417 -0.0869633 0.034167 -0.0135044 -0.0856474 0.0295569 -0.0112531 -0.0477899 0.106554 
-0.00220403 -0.0523348 0.0991375 0.00539072 -0.0572611 0.0909305 0.00866444 -0.0620831 0.0823664 
0.0108302 -0.0668783 0.0737108 0.00981415 -0.0707174 0.0658516 0.00817729 -0.07437 0.0581479 
0.00469499 -0.0766714 0.051605 0.000955166 -0.0787843 0.0452241 -0.00351039 -0.0794942 0.0399538 
-0.00804045 -0.0800795 0.0347822 -0.0104589 -0.0794312 0.0305374 -0.0127874 -0.0787304 0.0263319 
-0.0152607 -0.037592 0.0923911 -0.00684227 -0.0420253 0.0864361 0.000358952 -0.0468794 0.0797593 
0.00381033 -0.0517744 0.0725574 0.00630019 -0.0566799 0.0652209 0.00591651 -0.0607675 0.058398 
0.00497214 -0.0646955 0.0516754 0.00226762 -0.0673921 0.0458685 -0.000682508 -0.0699168 0.0401894 
-0.00441912 -0.0711321 0.0354527 -0.00822564 -0.072231 0.0307998 -0.010297 -0.0721523 0.0269673 
-0.0122946 -0.0720235 0.0231697 -0.0186305 -0.0320125 0.0790685 -0.0109315 -0.0360301 0.0743716 
-0.00424456 -0.0404774 0.0690328 -0.000777959 -0.0450968 0.0630878 0.0018629 -0.0497603 0.0569873 
0.00194478 -0.053773 0.0511811 0.00152735 -0.0576587 0.0454324 -0.000535341 -0.0604708 0.0403763 
-0.00282763 -0.0631331 0.0354168 -0.00592882 -0.0646122 0.0312255 -0.00910192 -0.0659861 0.0271025 
-0.0108628 -0.0662677 0.0236777 -0.0125636 -0.0665028 0.0202827 -0.0219114 -0.0270774 0.065863 
-0.0149442 -0.0306368 0.062396 -0.00878834 -0.0346306 0.0583683 -0.00532917 -0.0389257 0.0536654 
-0.00256148 -0.0432981 0.0487894 -0.0020373 -0.0471908 0.0439972 -0.00195088 -0.05099 0.0392213 
-0.00339073 -0.0538786 0.0349181 -0.00504356 -0.0566401 0.0306808 -0.00752238 -0.0583493 0.0270365 
-0.0100746 -0.059965 0.0234449 -0.0115301 -0.0605777 0.0204273 -0.012939 -0.0611477 0.0174341 
-0.0242343 -0.025397 0.0548507 -0.0179909 -0.0284019 0.0522645 -0.0124065 -0.0318226 0.0491939 
-0.00908696 -0.0356255 0.0454543 -0.00634819 -0.0395263 0.0415431 -0.00556219 -0.0430994 0.0375935 
-0.00515723 -0.0466086 0.0336363 -0.00614045 -0.0493713 0.0299941 -0.00731737 -0.0520299 0.0263959 
-0.00929929 -0.0537784 0.0232486 -0.0113528 -0.055446 0.0201414 -0.0125555 -0.0562169 0.0174973 
-0.0137221 -0.0569497 0.014873 -0.0264719 -0.024006 0.0440334 -0.0209518 -0.0264478 0.0422969 
-0.0159424 -0.0292847 0.0401519 -0.0127742 -0.0325803 0.0373508 -0.0100782 -0.0359935 0.0343814 
-0.00904645 -0.0392294 0.0312591 -0.00833941 -0.0424305 0.0281069 -0.00888077 -0.0450494 0.0251176 
-0.00959632 -0.0475869 0.022151 -0.0110925 -0.0493578 0.0194964 -0.0126581 -0.0510605 0.0168694 
-0.0136128 -0.0519744 0.0145959 -0.0145415 -0.0528547 0.0123374 -0.0277679 -0.0239062 0.035706 
-0.0228945 -0.0260561 0.0345031 -0.0184294 -0.028586 0.0329536 -0.0154874 -0.0315998 0.0307988 
-0.012936 -0.0347378 0.0284889 -0.0118073 -0.0377664 0.0259801 -0.0109563 -0.0407736 0.0234327 
-0.0112141 -0.043279 0.0209588 -0.0116266 -0.0457144 0.0184953 -0.0127693 -0.047457 0.0162486 
-0.0139769 -0.049138 0.0140212 -0.0147425 -0.0500882 0.012064 -0.0154893 -0.0510073 0.0101183 
-0.0290239 -0.0238613 0.0274844 -0.0247939 -0.0257309 0.0268018 -0.0208718 -0.0279655 0.0258337 
-0.0181591 -0.0307072 0.0243129 -0.0157566 -0.033579 0.0226503 -0.0145374 -0.0364058 0.0207461 
-0.0135492 -0.0392239 0.0187948 -0.0135301 -0.0416172 0.0168306 -0.0136462 -0.0439512 0.0148646 
-0.0144412 -0.0456634 0.0130223 -0.0152964 -0.0473203 0.011191 -0.0158754 -0.0483023 0.00954778 
-0.0164425 -0.0492555 0.00791258 -0.000331117 -0.133544 0.128655 0.00852367 -0.136895 0.121609 
0.0154996 -0.140245 0.113599 0.0168392 -0.14289 0.104999 0.0167336 -0.145355 0.0962471 
0.0124408 -0.146326 0.0880537 0.00733092 -0.147005 0.0799693 -1.72765e-05 -0.145611 0.0726782 
-0.00767784 -0.143928 0.0654977 -0.0157162 -0.140104 0.0590123 -0.0237882 -0.13609 0.0525887 
-0.0278648 -0.13042 0.0467875 -0.0317714 -0.124679 0.0410128 -0.00349922 -0.116406 0.125133 
0.00537194 -0.119778 0.117676 0.0124809 -0.123223 0.109275 0.0143252 -0.126105 0.100342 
0.0148196 -0.128842 0.0912731 0.0114145 -0.130262 0.08288 0.00724846 -0.131424 0.0746187 
0.000950395 -0.13077 0.0673328 -0.0056452 -0.129862 0.0601829 -0.012736 -0.127069 0.0539222 
-0.0198708 -0.124107 0.0477406 -0.0235187 -0.119629 0.042322 -0.0270181 -0.115087 0.0369359 
-0.00662025 -0.0992189 0.120273 0.00219214 -0.102702 0.112686 0.00937233 -0.106334 0.104184 
0.0116706 -0.10954 0.0951758 0.012717 -0.112636 0.0860378 0.0101385 -0.114565 0.0776287 
0.00685274 -0.116265 0.0693618 0.00153266 -0.116356 0.0621779 -0.00407131 -0.116221 0.0551451 
-0.0102711 -0.114408 0.049131 -0.0165238 -0.112445 0.0432074 -0.0197634 -0.109083 0.0381468 
-0.0228747 -0.105661 0.033123 -0.00982286 -0.0843642 0.111841 -0.00128501 -0.0879283 0.104773 
0.00578217 -0.0917059 0.0968383 0.00839886 -0.0951911 0.0883534 0.00987438 -0.0986013 0.0797275 
0.00799953 -0.100974 0.0717456 0.00547097 -0.103145 0.0638894 0.001001 -0.103856 0.057069 
-0.0037399 -0.104365 0.0503932 -0.00914878 -0.103339 0.0447304 -0.014617 -0.102177 0.0391576 
-0.017486 -0.0997023 0.0344542 -0.0202443 -0.0971712 0.0297878 -0.0130464 -0.0701076 0.102493 
-0.00483839 -0.0737454 0.0961104 0.00206853 -0.0776572 0.0889145 0.00496892 -0.0814105 0.0811065 
0.00684198 -0.0851231 0.0731416 0.00563924 -0.0879239 0.0657005 0.00383636 -0.0905466 0.0583616 
0.000183704 -0.0918485 0.0519719 -0.00372709 -0.0929661 0.0457146 -0.00837073 -0.092679 0.04043 
-0.0130795 -0.092267 0.0352317 -0.0155875 -0.0906202 0.0308853 -0.0180019 -0.0889209 0.0265751 
-0.0160977 -0.0595724 0.0915092 -0.00837687 -0.06309 0.0860558 -0.00178365 -0.0669189 0.0798579 
0.00126012 -0.070718 0.0729903 0.00339377 -0.0745094 0.065951 0.00273409 -0.0775258 0.0592755 
0.00152938 -0.080391 0.0526709 -0.00142144 -0.0820732 0.0468635 -0.00461593 -0.0835902 0.0411672 
-0.00858019 -0.0838228 0.036335 -0.0126129 -0.0839411 0.0315795 -0.0147936 -0.0829032 0.027604 
-0.0168955 -0.081816 0.0236618 -0.0191154 -0.0497634 0.0802055 -0.0119124 -0.053123 0.0757296 
-0.00566285 -0.0568266 0.0705804 -0.00250307 -0.0606281 0.0647046 -0.00013556 -0.0644546 0.0586425 
-0.000277363 -0.0676454 0.0527764 -0.000908787 -0.0707121 0.0469485 -0.00318031 -0.0727335 0.0417528 
-0.0056807 -0.0746091 0.0366454 -0.00898235 -0.0753185 0.0322801 -0.0123552 -0.0759244 0.0279807 
-0.0142152 -0.0754525 0.0243789 -0.0160108 -0.0749347 0.0208068 -0.0216064 -0.0436775 0.0692282 
-0.0149976 -0.0467073 0.0656509 -0.00918911 -0.0500897 0.0614758 -0.00604711 -0.0536725 0.0565622 
-0.00358883 -0.0573067 0.0514593 -0.00336165 -0.0604458 0.0464166 -0.00356981 -0.0634884 0.0413856 
-0.00529591 -0.0656311 0.0368284 -0.00723382 -0.0676483 0.0323374 -0.00997325 -0.0686249 0.0284547 
-0.0127839 -0.0695091 0.0246261 -0.0143644 -0.0694055 0.0213954 -0.0158925 -0.0692598 0.0181901 
-0.0240239 -0.0381111 0.0582964 -0.0180199 -0.0407873 0.0556066 -0.0126661 -0.043821 0.0523953 
-0.00956059 -0.0471543 0.0484398 -0.00703149 -0.0505643 0.0442934 -0.00645611 -0.0536204 0.0400761 
-0.00626194 -0.0566074 0.035845 -0.00746129 -0.0588409 0.0319301 -0.0088551 -0.0609693 0.0280592 
-0.0110463 -0.062184 0.0246614 -0.0133084 -0.0633174 0.0213056 -0.0146151 -0.0635544 0.0184455 
-0.0158811 -0.0637533 0.0156065 -0.0257238 -0.0353999 0.0488817 -0.0203227 -0.0376596 0.0468615 
-0.0154548 -0.0402635 0.0443895 -0.012487 -0.0432259 0.041209 -0.0100065 -0.0462803 0.0378469 
-0.00922878 -0.0491001 0.0343378 -0.00878335 -0.0518742 0.0308002 -0.00959921 -0.0540323 0.0274621 
-0.0105911 -0.0561045 0.0241519 -0.0123486 -0.0573889 0.0212012 -0.0141742 -0.0586034 0.0182825 
-0.0152567 -0.0590196 0.0157658 -0.0163076 -0.0594018 0.0132662 -0.02736 -0.0329425 0.0396018 
-0.0225616 -0.0347802 0.0382319 -0.0181823 -0.036947 0.0364793 -0.0153613 -0.0395278 0.0340575 
-0.0129399 -0.0422149 0.0314642 -0.0119729 -0.0447848 0.0286531 -0.0112896 -0.0473319 0.0257994 
-0.0117347 -0.0493998 0.0230324 -0.0123373 -0.0514009 0.0202775 -0.0136713 -0.0527402 0.0177707 
-0.0150703 -0.0540207 0.0152858 -0.0159331 -0.0546018 0.0131101 -0.016773 -0.055153 0.0109476 
-0.0282839 -0.0322479 0.0322421 -0.0240307 -0.0338654 0.031299 -0.0201154 -0.0358005 0.0300294 
-0.0174974 -0.0381675 0.0281503 -0.0152121 -0.0406454 0.0261151 -0.014174 -0.0430589 0.0238373 
-0.0133792 -0.0454599 0.0215122 -0.0135853 -0.0474477 0.0192064 -0.0139312 -0.049378 0.0169033 
-0.0149566 -0.0507101 0.0147701 -0.0160423 -0.051989 0.0126519 -0.0167377 -0.0526201 0.0107708 
-0.0174164 -0.0532237 0.00889971 -0.0291775 -0.0316284 0.0249641 -0.025467 -0.0330342 0.0244382 
-0.0220147 -0.0347463 0.0236415 -0.0196021 -0.0369067 0.022296 -0.0174562 -0.0391821 0.0208098 
-0.016352 -0.0414432 0.0190584 -0.015451 -0.0437014 0.0172554 -0.0154239 -0.0456097 0.0154061 
-0.0155186 -0.0474692 0.0135504 -0.0162403 -0.0487914 0.0117878 -0.0170176 -0.0500658 0.0100334 
-0.0175477 -0.0507422 0.00844489 -0.0180673 -0.0513931 0.00686337 -0.00361083 -0.135157 0.105165 
0.00357915 -0.139345 0.100782 0.00924253 -0.14353 0.0955221 0.0100674 -0.146914 0.089292 
0.00965166 -0.150093 0.0828133 0.00541964 -0.151558 0.0763296 0.00044301 -0.152689 0.069845 
-0.00667709 -0.151434 0.0636756 -0.0140963 -0.149846 0.0575501 -0.0218812 -0.145804 0.0517995 
-0.0296986 -0.141544 0.0460822 -0.0336399 -0.135418 0.0408014 -0.0374163 -0.129212 0.0355391 
-0.00729593 -0.12001 0.102435 -4.30869e-05 -0.123794 0.097601 0.00579731 -0.127629 0.0919063 
0.00718803 -0.130833 0.0853082 0.00743781 -0.133874 0.0784785 0.00418765 -0.135474 0.0717706 
0.000254596 -0.136794 0.0650865 -0.00570186 -0.136112 0.0589039 -0.0119407 -0.135152 0.0527913 
-0.01868 -0.132114 0.0472464 -0.0254638 -0.128891 0.041752 -0.0289351 -0.124016 0.0368297 
-0.0322654 -0.119072 0.0319317 -0.0107271 -0.104862 0.098733 -0.00347321 -0.108351 0.093658 
0.00248749 -0.111949 0.087749 0.0043774 -0.115082 0.0809866 0.0052235 -0.118097 0.0740055 
0.00286096 -0.119909 0.0672249 -0.000127648 -0.121486 0.0604835 -0.00502955 -0.121385 0.0543666 
-0.0101985 -0.121049 0.0483368 -0.0159775 -0.118948 0.0430095 -0.0218107 -0.116691 0.0377446 
-0.0248436 -0.112969 0.0331508 -0.0277574 -0.109184 0.0285856 -0.0137509 -0.0915512 0.092295 
-0.00668372 -0.0948429 0.0874693 -0.000777297 -0.0982964 0.0818554 0.00144137 -0.101436 0.0754008 
0.00271446 -0.104495 0.0687305 0.00104743 -0.106539 0.0622388 -0.00119326 -0.108385 0.055782 
-0.00524347 -0.108777 0.0499466 -0.0095462 -0.108966 0.044198 -0.0145253 -0.107605 0.0391701 
-0.0195645 -0.106107 0.0342064 -0.0222219 -0.103279 0.029931 -0.0247779 -0.100396 0.0256848 
-0.0166703 -0.078711 0.0851556 -0.00983791 -0.0818316 0.0807048 -0.00403053 -0.0851638 0.0755167 
-0.00152679 -0.0883296 0.0694907 0.000129851 -0.0914526 0.06325 -0.000890914 -0.0937327 0.0571398 
-0.00243409 -0.0958484 0.0510552 -0.00568463 -0.0967119 0.0455567 -0.00917341 -0.0974007 0.04014 
-0.0133936 -0.0967291 0.0354327 -0.0176789 -0.0959366 0.0307884 -0.0199769 -0.0939385 0.0268288 
-0.0221904 -0.0918892 0.0228983 -0.0191957 -0.0687899 0.0765753 -0.0127377 -0.0716908 0.0727179 
-0.00717046 -0.0748354 0.0681858 -0.00452951 -0.0779391 0.0628199 -0.00263891 -0.0810323 0.0572401 
-0.00317006 -0.083434 0.0517079 -0.00417375 -0.0857007 0.0461849 -0.00677596 -0.0868803 0.0411558 
-0.00960125 -0.0879081 0.0361954 -0.0131811 -0.0877265 0.0318728 -0.0168281 -0.0874373 0.0276069 
-0.0188151 -0.0860463 0.0239738 -0.0207315 -0.0846085 0.0203676 -0.0216443 -0.0594385 0.067714 
-0.0155879 -0.0621102 0.0644925 -0.0102883 -0.0650542 0.0606614 -0.00753897 -0.0680787 0.0560005 
-0.00544359 -0.0711238 0.0511269 -0.00551569 -0.0736246 0.0462109 -0.00601072 -0.0760191 0.0412867 
-0.00799416 -0.0774844 0.0367527 -0.0101853 -0.0788201 0.032273 -0.013148 -0.0790895 0.0283477 
-0.0161792 -0.079264 0.0244716 -0.0178646 -0.0784369 0.021167 -0.0194928 -0.0775671 0.0178867 
-0.0235759 -0.0531203 0.0588593 -0.0179929 -0.0554911 0.0562611 -0.0130492 -0.0581433 0.0531205 
-0.010314 -0.0609663 0.0491779 -0.00814513 -0.0638331 0.0450298 -0.00790228 -0.0662849 0.0407639 
-0.00803524 -0.0686558 0.036475 -0.00953812 -0.0702392 0.0324698 -0.0112322 -0.0717127 0.0285041 
-0.0136871 -0.0722492 0.0249946 -0.0162097 -0.0727023 0.0215255 -0.0176399 -0.0722496 0.0185493 
-0.0190236 -0.0717584 0.0155941 -0.0254353 -0.0472254 0.0500055 -0.0203357 -0.0492851 0.0480287 
-0.0157602 -0.0516328 0.0455772 -0.0130563 -0.0542373 0.0423548 -0.0108323 -0.0569077 0.0389349 
-0.0102946 -0.0592899 0.0353238 -0.0100859 -0.0616158 0.0316753 -0.0111275 -0.063294 0.0282037 
-0.0123436 -0.0648817 0.0247567 -0.0143061 -0.0656595 0.0216654 -0.016335 -0.0663653 0.0186058 
-0.0175164 -0.0662607 0.0159581 -0.0186618 -0.0661217 0.0133278 -0.0267031 -0.0438069 0.0421488 
-0.0220942 -0.0455313 0.0406638 -0.0179182 -0.0475352 0.0387656 -0.0153324 -0.0498458 0.0361496 
-0.0131543 -0.052235 0.0333496 -0.0124486 -0.0544369 0.0303181 -0.0120302 -0.0566023 0.0272415 
-0.0127406 -0.0582411 0.0242603 -0.0136085 -0.0598064 0.0212923 -0.015187 -0.0606774 0.018593 
-0.0168286 -0.0614867 0.0159176 -0.0178094 -0.0615785 0.0135775 -0.0187619 -0.0616398 0.0112517 
-0.0279183 -0.0406085 0.0343806 -0.0238007 -0.0419955 0.033376 -0.0200271 -0.043652 0.0320191 
-0.017567 -0.045662 0.0299994 -0.0154438 -0.0477625 0.0278096 -0.0145814 -0.0497744 0.0253511 
-0.0139649 -0.0517689 0.0228402 -0.0143557 -0.0533564 0.0203456 -0.014887 -0.0548872 0.0178532 
-0.0160911 -0.0558382 0.0155434 -0.017355 -0.0567378 0.0132499 -0.0181393 -0.0570125 0.0112157 
-0.0189031 -0.0572606 0.0091925 -0.0285671 -0.0394753 0.0280399 -0.0249013 -0.0406888 0.0273635 
-0.0215148 -0.0421637 0.026385 -0.0192282 -0.0440069 0.0248074 -0.0172235 -0.0459446 0.0230762 
-0.0163034 -0.0478371 0.0210688 -0.015595 -0.0497209 0.0190076 -0.0157799 -0.051254 0.0169149 
-0.0160895 -0.0527383 0.0148179 -0.0170214 -0.053699 0.0128418 -0.0180087 -0.0546133 0.0108765 
-0.0186439 -0.0549497 0.00911005 -0.0192641 -0.0552616 0.00735203 -0.0291919 -0.0384301 0.0217599 
-0.0259761 -0.039477 0.0214052 -0.0229761 -0.0407772 0.0207981 -0.0208649 -0.0424594 0.0196561 
-0.0189816 -0.0442396 0.0183771 -0.0180081 -0.0460158 0.0168156 -0.0172121 -0.0477913 0.0151992 
-0.017196 -0.04927 0.0135049 -0.0172887 -0.0507073 0.0117998 -0.0179529 -0.0516748 0.010155 
-0.0186679 -0.0526004 0.00851563 -0.019156 -0.0529934 0.00701529 -0.0196344 -0.0533638 0.00552086 
-0.00519834 -0.136303 0.0836603 0.000502829 -0.141237 0.0811523 0.004934 -0.146167 0.0778628 
0.00514296 -0.150218 0.0734224 0.0042693 -0.154043 0.0686869 -9.44233e-05 -0.15596 0.0636004 
-0.00513911 -0.157505 0.0584454 -0.0121988 -0.156378 0.053297 -0.0195397 -0.154879 0.0481495 
-0.0271819 -0.15064 0.043167 -0.034851 -0.146157 0.0381992 -0.0386997 -0.139621 0.0335399 
-0.0423859 -0.132996 0.0288938 -0.00937792 -0.122661 0.0817573 -0.00357502 -0.126859 0.0788082 
0.00107162 -0.131092 0.0750919 0.00190366 -0.134625 0.07029 0.00175759 -0.137979 0.0652097 
-0.00153536 -0.139772 0.0598996 -0.00544232 -0.141261 0.0545447 -0.0112325 -0.140573 0.0493696 
-0.0172855 -0.139583 0.0442195 -0.0237925 -0.136335 0.0394106 -0.0303399 -0.132887 0.034632 
-0.0336812 -0.127664 0.0302832 -0.0368862 -0.122367 0.0259526 -0.0131463 -0.109068 0.0791386 
-0.00729045 -0.112658 0.0759047 -0.00247797 -0.116325 0.0719269 -0.00109973 -0.119475 0.0669225 
-0.000602059 -0.122493 0.061655 -0.00294488 -0.124256 0.0562439 -0.00584192 -0.125774 0.0508049 
-0.0105032 -0.125533 0.0456667 -0.0154107 -0.125047 0.0405704 -0.0208926 -0.122707 0.0359413 
-0.0264255 -0.120203 0.0313538 -0.0293009 -0.116172 0.0272858 -0.0320633 -0.112075 0.0232399 
-0.0161367 -0.096985 0.0743985 -0.0103891 -0.100161 0.0712449 -0.00557229 -0.103456 0.0673883 
-0.00384083 -0.106394 0.0625479 -0.00290051 -0.10924 0.0574552 -0.00453823 -0.11106 0.0522333 
-0.00667898 -0.11268 0.0469862 -0.0104753 -0.112827 0.0420614 -0.0145026 -0.112768 0.0371816 
-0.01917 -0.111131 0.0327986 -0.0238944 -0.109352 0.0284598 -0.0263881 -0.106225 0.0246616 
-0.0287867 -0.103041 0.0208864 -0.0189275 -0.085289 0.0691146 -0.0133297 -0.088102 0.0661347 
-0.00854985 -0.0910732 0.0624976 -0.00651467 -0.0938423 0.057915 -0.00518326 -0.0965596 0.05309 
-0.00617873 -0.098459 0.0481317 -0.0076282 -0.100199 0.0431474 -0.0106271 -0.100719 0.0384812 
-0.0138423 -0.101068 0.0338594 -0.0177495 -0.100079 0.0297396 -0.0217181 -0.0989716 0.0256643 
-0.0238515 -0.0966754 0.0221331 -0.0259067 -0.0943286 0.0186251 -0.0211395 -0.0759328 0.0625606 
-0.0158156 -0.0784382 0.0599402 -0.0112032 -0.0811292 0.0567179 -0.00901791 -0.0837417 0.0525891 
-0.00745494 -0.0863341 0.0482277 -0.00798742 -0.0882728 0.0437002 -0.00892875 -0.0900839 0.0391401 
-0.0113118 -0.0908637 0.0348466 -0.013896 -0.0914995 0.0305903 -0.0171889 -0.090974 0.02679 
-0.0205449 -0.0903453 0.0230303 -0.0223788 -0.0886538 0.0197772 -0.024148 -0.0869171 0.0165455 
-0.0232385 -0.0670332 0.0557589 -0.0182129 -0.0692418 0.0535341 -0.0137933 -0.0716611 0.0507649 
-0.0114878 -0.0741194 0.0471279 -0.00972445 -0.0765878 0.0432685 -0.00982891 -0.0785579 0.0392042 
-0.0102978 -0.0804307 0.0351 -0.0121003 -0.0814482 0.0312014 -0.0140889 -0.0823464 0.0273314 
-0.0167962 -0.0822482 0.0238618 -0.0195674 -0.0820614 0.0204278 -0.0211138 -0.0809305 0.0174548 
-0.0226081 -0.0797594 0.0145015 -0.0248011 -0.0606331 0.0487458 -0.0201424 -0.062548 0.0469405 
-0.0159982 -0.0646834 0.0446494 -0.0136891 -0.0669415 0.0415408 -0.0118506 -0.069231 0.0382227 
-0.0116706 -0.0711457 0.0346654 -0.0118141 -0.0729873 0.0310616 -0.0131801 -0.0741152 0.0275949 
-0.0147168 -0.0751436 0.0241474 -0.0169568 -0.0753094 0.0210293 -0.0192594 -0.0753985 0.0179406 
-0.0205694 -0.0746456 0.0152513 -0.0218371 -0.0738568 0.0125789 -0.0262888 -0.0545818 0.0417031 
-0.0220067 -0.0562034 0.0403206 -0.0181494 -0.0580532 0.0385112 -0.015853 -0.0601046 0.0359361 
-0.0139568 -0.0622076 0.0331648 -0.0135122 -0.0640548 0.0301206 -0.0133508 -0.0658522 0.0270233 
-0.0143006 -0.0670728 0.0239938 -0.0154053 -0.0682129 0.0209738 -0.0171946 -0.06862 0.0182102 
-0.0190448 -0.0689618 0.0154693 -0.0201254 -0.0685614 0.0130642 -0.0211734 -0.0681293 0.0106734 
-0.0272567 -0.0506804 0.0352606 -0.0233667 -0.0520179 0.0342305 -0.0198298 -0.053579 0.0328271 
-0.017625 -0.055387 0.0307196 -0.0157617 -0.0572584 0.0284317 -0.0151678 -0.0589635 0.025856 
-0.0148216 -0.060636 0.0232241 -0.0154771 -0.0618426 0.0206056 -0.0162723 -0.062984 0.0179889 
-0.0177158 -0.0635012 0.015563 -0.0192169 -0.063963 0.0131541 -0.0201156 -0.0637718 0.011019 
-0.0209886 -0.0635528 0.00889565 -0.0281784 -0.0469701 0.0288713 -0.0246818 -0.0480242 0.0281875 
-0.0214684 -0.0492964 0.0271833 -0.0193621 -0.0508579 0.0255377 -0.0175398 -0.0524936 0.0237275 
-0.0168068 -0.0540498 0.0216162 -0.0162865 -0.0555905 0.0194461 -0.0166586 -0.0567734 0.0172362 
-0.0171551 -0.0579064 0.0150208 -0.0182622 -0.0585221 0.0129312 -0.0194234 -0.0590919 0.0108527 
-0.0201443 -0.0590973 0.00898648 -0.0208465 -0.0590787 0.0071293 -0.0286301 -0.0455185 0.0235064 
-0.0255028 -0.0464307 0.0230689 -0.0226068 -0.0475553 0.0223551 -0.0206425 -0.0489834 0.0210642 
-0.0189172 -0.0504892 0.0196254 -0.0181318 -0.0519531 0.0178902 -0.0175298 -0.0534089 0.0160972 
-0.0177196 -0.0545567 0.0142325 -0.0180199 -0.0556616 0.0123579 -0.0188836 -0.0563001 0.0105612 
-0.0197973 -0.0568971 0.00877157 -0.0203841 -0.0569733 0.00714425 -0.020957 -0.0570274 0.00552384 
-0.0290619 -0.044163 0.018185 -0.0263027 -0.0449392 0.0179897 -0.0237239 -0.0459225 0.0175616 
-0.0219035 -0.0472218 0.0166209 -0.0202776 -0.0486022 0.0155489 -0.0194434 -0.0499763 0.0141861 
-0.0187637 -0.0513492 0.0127666 -0.0187756 -0.0524614 0.0112444 -0.018884 -0.0535373 0.00970785 
-0.0195082 -0.0541953 0.00820246 -0.0201784 -0.0548162 0.00669983 -0.0206329 -0.0549579 0.00531012 
-0.0210784 -0.0550792 0.00392521 -0.00540702 -0.13707 0.0637731 -0.00105124 -0.142673 0.0624974 
0.00221321 -0.148276 0.0605439 0.00172376 -0.152935 0.05742 0.000271762 -0.157352 0.0539961 
-0.00438053 -0.159686 0.0500521 -0.00965723 -0.161614 0.0460067 -0.0167931 -0.160607 0.0417973 
-0.0241884 -0.159191 0.037565 -0.0317785 -0.154772 0.0333779 -0.039386 -0.150086 0.0291947 
-0.0431768 -0.143176 0.0252394 -0.0468053 -0.136171 0.0212937 -0.0100627 -0.124536 0.0627246 
-0.00557256 -0.12915 0.06106 -0.00205873 -0.133784 0.0587292 -0.00187102 -0.137655 0.0552847 
-0.00253618 -0.14133 0.0515545 -0.00603305 -0.143325 0.047408 -0.0100824 -0.144992 0.0431802 
-0.0158493 -0.144317 0.0389345 -0.0218558 -0.143314 0.0346862 -0.0282275 -0.139885 0.0306297 
-0.0346317 -0.13624 0.0265903 -0.0378812 -0.13071 0.0228778 -0.0409965 -0.125099 0.0191791 
-0.0141905 -0.112102 0.061129 -0.00960183 -0.115873 0.05919 -0.00587949 -0.119691 0.0566041 
-0.00509709 -0.122932 0.0529604 -0.00506852 -0.126024 0.0490454 -0.00755151 -0.127792 0.0447927 
-0.0105245 -0.129302 0.0404741 -0.0150899 -0.128964 0.0362426 -0.0198774 -0.128368 0.0320233 
-0.0251628 -0.12583 0.0281019 -0.0304925 -0.123118 0.0242069 -0.0332506 -0.118818 0.0207127 
-0.0358992 -0.114451 0.0172356 -0.0172658 -0.10099 0.057846 -0.0127148 -0.10418 0.0558997 
-0.00892954 -0.107449 0.0533414 -0.00775799 -0.110302 0.0497764 -0.00725662 -0.113048 0.0459532 
-0.0090105 -0.114731 0.0418215 -0.0112044 -0.116205 0.0376296 -0.0148819 -0.116168 0.0335547 
-0.0187664 -0.11592 0.0294961 -0.0232186 -0.114053 0.025766 -0.0277213 -0.112042 0.0220652 
-0.03009 -0.108657 0.0187843 -0.0323679 -0.105213 0.0155213 -0.0200712 -0.0902167 0.0541303 
-0.0155928 -0.092893 0.0522453 -0.011782 -0.095681 0.049787 -0.010274 -0.098209 0.0463719 
-0.00935644 -0.10067 0.0427114 -0.0104542 -0.102303 0.038759 -0.0119453 -0.103774 0.0347496 
-0.0148153 -0.104028 0.0308677 -0.0178777 -0.104111 0.0270036 -0.0215617 -0.10286 0.0234795 
-0.0253009 -0.10149 0.0199855 -0.0273064 -0.0989384 0.0169166 -0.0292382 -0.096337 0.0138657 
-0.0221428 -0.0813854 0.0492949 -0.0178482 -0.0836753 0.0476188 -0.0141326 -0.0861006 0.0454164 
-0.012446 -0.0883884 0.0423091 -0.0112796 -0.090641 0.0389699 -0.0119192 -0.0922403 0.0353339 
-0.0129112 -0.0937122 0.03164 -0.0151804 -0.0941759 0.0280474 -0.0176279 -0.0944989 0.024469 
-0.0207134 -0.0936869 0.0212014 -0.0238556 -0.092774 0.0179616 -0.0255695 -0.0908248 0.015119 
-0.0272226 -0.0888314 0.0122933 -0.0240712 -0.072933 0.0442409 -0.019982 -0.0748614 0.0428027 
-0.0163854 -0.0769472 0.0408865 -0.014551 -0.0790113 0.0381179 -0.0131683 -0.0810698 0.0351308 
-0.0133883 -0.082639 0.031838 -0.013921 -0.0841126 0.0284856 -0.0156299 -0.0847706 0.0252011 
-0.0175028 -0.0853147 0.0219261 -0.0200229 -0.084908 0.0189251 -0.0226006 -0.0844168 0.0159485 
-0.0240368 -0.0830243 0.0133351 -0.0254245 -0.0815933 0.0107371 -0.0254198 -0.0665734 0.0388403 
-0.0216029 -0.068198 0.0376763 -0.018205 -0.0699903 0.0360839 -0.0163377 -0.0718422 0.0336977 
-0.0148629 -0.0737093 0.0311078 -0.0148095 -0.0752093 0.0282038 -0.0150334 -0.0766377 0.0252384 
-0.0163331 -0.0773948 0.0222995 -0.0177828 -0.0780582 0.0193641 -0.0198646 -0.0779101 0.0166526 
-0.0220026 -0.0776899 0.013961 -0.0232168 -0.0766765 0.0115848 -0.0243917 -0.0756293 0.00922209 
-0.0266875 -0.0605058 0.0333913 -0.0231523 -0.0618347 0.0325065 -0.0199641 -0.06334 0.0312432 
-0.01808 -0.0649812 0.0292454 -0.0165303 -0.0666572 0.0270592 -0.0162239 -0.0680827 0.0245503 
-0.0161602 -0.0694593 0.0219784 -0.0170717 -0.0703022 0.0193901 -0.0181193 -0.0710705 0.0167995 
-0.0197805 -0.0711607 0.0143807 -0.0214963 -0.0711905 0.0119771 -0.0224962 -0.0705314 0.00983928 
-0.0234657 -0.069843 0.00771278 -0.0274633 -0.0563044 0.0282458 -0.0242327 -0.0573758 0.0276054 
-0.0212917 -0.0586223 0.0266321 -0.0194671 -0.0600495 0.0249876 -0.0179287 -0.061523 0.0231711 
-0.0174791 -0.0628298 0.0210333 -0.017242 -0.064104 0.0188328 -0.0178837 -0.0649491 0.0165819 
-0.018648 -0.0657344 0.0143239 -0.0199923 -0.0659464 0.0121893 -0.0213882 -0.0661075 0.0100658 
-0.022221 -0.0656671 0.00815896 -0.0230299 -0.0652011 0.00626133 -0.0281955 -0.052269 0.0231273 
-0.0252714 -0.0530862 0.0227281 -0.022581 -0.0540764 0.0220414 -0.0208226 -0.0552893 0.0207472 
-0.0193033 -0.0565594 0.0192972 -0.0187202 -0.0577434 0.0175285 -0.0183198 -0.0589107 0.0156975 
-0.0187022 -0.0597507 0.0137826 -0.0191937 -0.060545 0.0118561 -0.0202304 -0.0608686 0.0100052 
-0.0213155 -0.0611504 0.00816096 -0.0219854 -0.0609166 0.00648443 -0.0226377 -0.0606609 0.00481502 
-0.0285138 -0.0505968 0.018703 -0.025885 -0.0512912 0.0184819 -0.0234482 -0.0521554 0.0180112 
-0.0217991 -0.0532567 0.016995 -0.020352 -0.0544189 0.015839 -0.0197148 -0.0555296 0.0143774 
-0.0192357 -0.0566301 0.0128561 -0.0194517 -0.0574491 0.0112316 -0.0197648 -0.0582287 0.00959261 
-0.0205806 -0.058585 0.00799357 -0.0214411 -0.0589035 0.00639808 -0.0219891 -0.0587477 0.00492987 
-0.0225238 -0.0585716 0.00346707 -0.0288145 -0.0490251 0.0143082 -0.0264805 -0.0496023 0.0142624 
-0.0242975 -0.050346 0.0140048 -0.0227594 -0.0513402 0.0132636 -0.0213868 -0.0523986 0.0123985 
-0.0206989 -0.0534379 0.0112414 -0.0201446 -0.0544735 0.0100273 -0.0201984 -0.0552707 0.00869108 
-0.020337 -0.0560347 0.00733783 -0.0209355 -0.0564202 0.00598932 -0.021575 -0.056772 0.00464123 
-0.0220029 -0.0566886 0.00338041 -0.0224218 -0.0565866 0.0021233 -0.0050331 -0.13693 0.04571 
-0.00182646 -0.143034 0.0451496 0.000421162 -0.149137 0.0440051 -0.000716458 -0.154251 0.0417538 
-0.00272209 -0.159112 0.0392188 -0.00767429 -0.161766 0.0361267 -0.0132014 -0.16399 0.032926 
-0.0204308 -0.163091 0.0295208 -0.0278978 -0.161756 0.026087 -0.035449 -0.15723 0.0226788 
-0.0430076 -0.152421 0.0192729 -0.0467478 -0.145267 0.0160745 -0.0503255 -0.138013 0.0128849 
-0.010057 -0.125308 0.0455631 -0.00668957 -0.130246 0.0447002 -0.00416551 -0.135191 0.0432635 
-0.00458539 -0.139322 0.0407644 -0.00576012 -0.143245 0.037993 -0.00949553 -0.1454 0.0347403 
-0.0137306 -0.147211 0.0313937 -0.0195197 -0.146558 0.0279465 -0.0255256 -0.145561 0.0244853 
-0.0317995 -0.142018 0.0211528 -0.0380973 -0.138248 0.0178318 -0.0412721 -0.132513 0.0147873 
-0.0443141 -0.126695 0.0117546 -0.0144739 -0.113825 0.0449658 -0.0109708 -0.117755 0.0438782 
-0.00820341 -0.12171 0.0422332 -0.00799058 -0.125034 0.0395726 -0.00843276 -0.128196 0.0366517 
-0.0111069 -0.129979 0.0333096 -0.0142166 -0.131492 0.0298855 -0.018752 -0.131092 0.0264364 
-0.0234864 -0.130425 0.0229839 -0.0286307 -0.127751 0.0197346 -0.0338114 -0.124898 0.0165034 
-0.036477 -0.120415 0.0135995 -0.0390356 -0.115863 0.0107095 -0.0176496 -0.103532 0.0429566 
-0.014126 -0.106764 0.0418295 -0.011246 -0.110043 0.0401739 -0.0106116 -0.112852 0.0375526 
-0.0105531 -0.115541 0.0346837 -0.0124769 -0.11713 0.0314235 -0.0147874 -0.118505 0.028087 
-0.0184171 -0.118336 0.0247503 -0.022231 -0.117951 0.0214137 -0.0265291 -0.115919 0.0183015 
-0.0308703 -0.113741 0.0152093 -0.0331417 -0.110173 0.0124554 -0.0353251 -0.106547 0.00971581 
-0.0205072 -0.0935448 0.0405855 -0.0169925 -0.0961564 0.0394662 -0.0140334 -0.0988417 0.0378509 
-0.0130316 -0.101211 0.0353203 -0.0125318 -0.1035 0.0325551 -0.0137849 -0.104942 0.0294206 
-0.0153799 -0.106218 0.026214 -0.0181932 -0.106274 0.0230191 -0.0211766 -0.10616 0.0198257 
-0.0247012 -0.104712 0.0168645 -0.028274 -0.103146 0.0139239 -0.0301807 -0.100407 0.0113224 
-0.0320166 -0.0976181 0.00873533 -0.022518 -0.0852085 0.0371951 -0.0191121 -0.0873744 0.036194 
-0.0161863 -0.0896346 0.034736 -0.0149766 -0.0916995 0.0324172 -0.0142068 -0.0937143 0.0298777 
-0.0149994 -0.0950651 0.0269774 -0.0160967 -0.0962863 0.0240068 -0.018318 -0.0965106 0.0210341 
-0.0206962 -0.0965957 0.0180612 -0.023634 -0.0955646 0.015299 -0.0266216 -0.0944342 0.0125557 
-0.0282431 -0.0922892 0.010128 -0.0298064 -0.0901011 0.00771382 -0.0243635 -0.0771945 0.0336059 
-0.0210859 -0.0789488 0.0327445 -0.0182155 -0.0808167 0.0314666 -0.0168288 -0.0826032 0.0293831 