# vtk DataFile Version 2.0
vtk output
ASCII
DATASET RECTILINEAR_GRID
DIMENSIONS 13 13 13
X_COORDINATES 13 float
-10 -9.79167 -9.58333 -9.375 -9.16667 -8.95833 -8.75 -8.54167 -8.33333 
-8.125 -7.91667 -7.70833 -7.5 
Y_COORDINATES 13 float
5 5.20833 5.41667 5.625 5.83333 6.04167 6.25 6.45833 6.66667 
6.875 7.08333 7.29167 7.5 
Z_COORDINATES 13 float
-7.5 -7.29167 -7.08333 -6.875 -6.66667 -6.45833 -6.25 -6.04167 -5.83333 
-5.625 -5.41667 -5.20833 -5 
POINT_DATA 2197
VECTORS grad float
-0.0344272 -0.0058954 0.01807 -0.0414454 -0.00142796 0.0172366 -0.0487677 0.00315167 0.0164125 
-0.0632381 0.0103672 0.0158053 -0.0772671 0.0179359 0.0152541 -0.0863295 0.0294771 0.0153314 
-0.0922504 0.0414857 0.0154634 -0.0756568 0.0568451 0.0159878 -0.0526867 0.0711697 0.0160579 
0.00296267 0.0801911 0.0138002 0.0599306 0.085216 0.0101651 0.122041 0.0746545 0.00115822 
0.175261 0.0613944 -0.00880348 -0.0288385 0.00190837 0.0164524 -0.0349387 0.00813256 0.0155381 
-0.0412834 0.0145123 0.0146303 -0.0533716 0.0245469 0.0138752 -0.064985 0.035055 0.01316 
-0.071257 0.0508907 0.0128934 -0.07481 0.0673135 0.0126486 -0.0588766 0.0879449 0.0125604 
-0.0378122 0.107232 0.0120838 0.00954769 0.119626 0.00961654 0.0579243 0.12704 0.00607462 
0.110266 0.115031 -0.00165848 0.155477 0.0996482 -0.0101568 -0.0214189 0.00885277 0.014759 
-0.0263122 0.0163973 0.0137185 -0.0313749 0.0241165 0.0126798 -0.0404158 0.0359363 0.0116853 
-0.0489595 0.0482448 0.0107086 -0.0519104 0.0660503 0.00993204 -0.052679 0.08435 0.00913768 
-0.037807 0.106191 0.00821571 -0.0192379 0.126528 0.00697959 0.0182779 0.139152 0.00413353 
0.0564793 0.146883 0.000535066 0.0973547 0.135524 -0.00599779 0.133116 0.120666 -0.0130932 
-0.0132083 0.0144763 0.0129965 -0.0169636 0.0227808 0.0118066 -0.0208262 0.0312569 0.0106142 
-0.0272102 0.0437645 0.00936616 -0.0331174 0.0567092 0.00811887 -0.0336614 0.0745719 0.00688035 
-0.0325098 0.092771 0.00560068 -0.0192062 0.113382 0.00402608 -0.0033215 0.132493 0.00220535 
0.0257906 0.143916 -0.000876773 0.0553432 0.150999 -0.00446924 0.0866139 0.141159 -0.0100521 
0.114325 0.128051 -0.0160323 -0.00435308 0.0190235 0.0111778 -0.0070266 0.0276313 0.00981948 
-0.00975611 0.0363899 0.00845488 -0.0138011 0.0486909 0.00694171 -0.0174247 0.0613234 0.00541645 
-0.0163067 0.0776846 0.00375502 -0.0139393 0.0941721 0.00204241 -0.0026171 0.111565 -3.71831e-05 
0.0104292 0.127596 -0.00230001 0.0323111 0.136649 -0.0055019 0.0544586 0.142301 -0.00903741 
0.0776419 0.13469 -0.0138741 0.0984407 0.124327 -0.0189737 0.00435582 0.0223014 0.00929416 
0.00253639 0.0308683 0.00775545 0.000695089 0.0395607 0.00620747 -0.00165991 0.0512027 0.00444174 
-0.00366106 0.0630794 0.00265636 -0.00168147 0.0775978 0.000649891 0.00120321 0.0920985 -0.00140862 
0.0105746 0.106473 -0.00384023 0.0210818 0.119663 -0.00640445 0.0374097 0.126785 -0.00964821 
0.0538889 0.131285 -0.0131022 0.070958 0.125555 -0.0173758 0.0864428 0.117567 -0.0218104 
0.0129639 0.024704 0.00736582 0.0118415 0.0329924 0.00563834 0.0107195 0.0413782 0.00389933 
0.009607 0.0520491 0.00188967 0.00877221 0.0628643 -0.000143518 0.0110614 0.0753044 -0.00244133 
0.0139816 0.0876286 -0.00478571 0.0214233 0.099122 -0.00746384 0.0295979 0.109636 -0.0102324 
0.0415277 0.11513 -0.0134643 0.0535363 0.118669 -0.0168197 0.065852 0.114583 -0.0206566 
0.0771247 0.108713 -0.0245748 0.0210382 0.0261386 0.00535714 0.020418 0.0340667 0.00341897 
0.0198102 0.0420698 0.00146743 0.0194952 0.0518318 -0.000797979 0.0193893 0.0616773 -0.00308876 
0.0216354 0.0724614 -0.00566491 0.0243123 0.0830826 -0.00828018 0.0300764 0.0925366 -0.011176 
0.0363039 0.101177 -0.0141275 0.0449067 0.10565 -0.0173647 0.053539 0.108625 -0.020659 
0.0622868 0.105754 -0.0241759 0.0703453 0.101438 -0.0277072 0.0288025 0.0270111 0.00330182 
0.0285714 0.0345314 0.00114022 0.0283589 0.0421075 -0.00103634 0.0285829 0.050997 -0.00356436 
0.0289518 0.0599259 -0.00611841 0.03095 0.0692991 -0.00896534 0.0332218 0.0784924 -0.0118428 
0.0374545 0.0863956 -0.0149395 0.041959 0.0936298 -0.0180616 0.0478566 0.0974345 -0.0213141 
0.0537482 0.100074 -0.0245691 0.0596162 0.0981682 -0.0278337 0.06504 0.0950801 -0.0310532 
0.0360587 0.0271886 0.00113685 0.0361111 0.0343685 -0.00129397 0.0361843 0.0415929 -0.00374189 
0.0367457 0.0498615 -0.0065915 0.0373975 0.0581475 -0.0094686 0.0390667 0.0666283 -0.012655 
0.0408906 0.0749314 -0.0158644 0.0438237 0.0819612 -0.019239 0.0468897 0.0884208 -0.0226105 
0.0506364 0.091958 -0.0259664 0.0543425 0.0945282 -0.029271 0.0578905 0.0933272 -0.0323754 
0.0611535 0.0910918 -0.0353696 0.0430685 0.0270291 -0.00108126 0.0433532 0.0339014 -0.00380351 
0.043659 0.0408105 -0.00654527 0.04446 0.0485804 -0.00974507 0.0453018 0.056356 -0.0129742 
0.0466024 0.0641957 -0.0165333 0.0479576 0.0718695 -0.0201084 0.0497037 0.0783542 -0.0237983 
0.0514691 0.0843458 -0.0274575 0.0533336 0.0878097 -0.0309596 0.0551236 0.0904396 -0.034357 
0.0566229 0.0898168 -0.0373457 0.0579549 0.0882525 -0.0401564 0.0497564 0.0262716 -0.00343089 
0.0502489 0.0329312 -0.00651962 0.0507627 0.0396255 -0.00963195 0.051779 0.047137 -0.0132982 
0.0527927 0.054656 -0.0169993 0.0537779 0.0622588 -0.0210921 0.0547305 0.0697144 -0.0251974 
0.0554491 0.076116 -0.0293923 0.0560825 0.0820703 -0.0335265 0.0562794 0.0857323 -0.0373493 
0.0563531 0.0886122 -0.0409988 0.0559459 0.0884419 -0.043972 0.0554484 0.087338 -0.0466731 
0.0563155 0.025275 -0.00583311 0.057006 0.0317596 -0.00931836 0.0577181 0.0382796 -0.0128319 
0.0589399 0.0456288 -0.0170112 0.0601184 0.0529926 -0.0212322 0.0608093 0.0605201 -0.0259231 
0.0613856 0.0679222 -0.0306244 0.0611406 0.0744253 -0.0354002 0.0607095 0.0805146 -0.0400842 
0.0593247 0.0844833 -0.0442976 0.0577619 0.0876894 -0.0482629 0.0555052 0.0879212 -0.0512608 
0.0532187 0.0871936 -0.0538816 -0.0335123 -0.00771662 0.0239669 -0.0400766 -0.00342687 0.0250899 
-0.046909 0.000966428 0.0262811 -0.0600411 0.00779255 0.0290743 -0.0726956 0.0149261 0.0321053 
-0.0799764 0.0255177 0.0378126 -0.0843954 0.0364702 0.0438017 -0.0683048 0.0500093 0.0518114 
-0.0467242 0.0626108 0.0589219 0.0029921 0.0704064 0.0614236 0.0538274 0.0748726 0.0608806 
0.109027 0.066354 0.0484636 0.15664 0.0554963 0.0339721 -0.0281668 -9.62144e-05 0.0219691 
-0.0338903 0.00585318 0.0228399 -0.0398302 0.0119451 0.0237677 -0.050853 0.0213857 0.0260341 
-0.061383 0.0312376 0.0284871 -0.0663702 0.0457179 0.0330396 -0.0688726 0.0606509 0.037773 
-0.0535665 0.0788286 0.0438031 -0.0337954 0.0957814 0.0490521 0.0088576 0.106455 0.0502978 
0.0523849 0.112945 0.0491459 0.0993219 0.103114 0.038643 0.140107 0.0903386 0.0264406 
-0.021092 0.00669244 0.0197682 -0.0257143 0.013896 0.0202829 -0.0304877 0.0212595 0.0208392 
-0.0388115 0.0323819 0.0223692 -0.0466386 0.043931 0.0240209 -0.0488775 0.0602801 0.0270414 
-0.0491102 0.077008 0.0301288 -0.0349646 0.0964507 0.033695 -0.0175501 0.114523 0.0366276 
0.0166167 0.12557 0.0363122 0.051386 0.132435 0.0343133 0.0885052 0.122991 0.0257484 
0.121144 0.110464 0.0159162 -0.0132548 0.0121996 0.0174345 -0.0168332 0.02013 0.0175617 
-0.0205085 0.0282182 0.0177163 -0.0264579 0.0400109 0.0185137 -0.0319406 0.0521874 0.0193813 
-0.0321725 0.0686815 0.0210388 -0.0308351 0.0854272 0.0226896 -0.0182511 0.103976 0.0242927 
-0.00334647 0.121156 0.025399 0.023451 0.13132 0.0239593 0.0506463 0.13772 0.0213737 
0.0793938 0.129443 0.0143185 0.104973 0.118258 0.00635081 -0.00479624 0.0166625 0.0149926 
-0.00737773 0.0248903 0.0147067 -0.0100106 0.0332574 0.0144352 -0.01385 0.0448962 0.014503 
-0.0172804 0.0568286 0.0146005 -0.0161093 0.0720631 0.0150325 -0.013772 0.0873785 0.0154174 
-0.00307641 0.103275 0.0154653 0.00919351 0.117924 0.0151449 0.0295317 0.126181 0.0129368 
0.050118 0.131431 0.0099765 0.071672 0.124955 0.00408231 0.0910783 0.116003 -0.00243318 
0.00353285 0.0198802 0.0124909 0.00174303 0.0280722 0.0118082 -6.77218e-05 0.0363807 0.0111302 
-0.00237011 0.0474253 0.010565 -0.00433013 0.0586793 0.0100036 -0.00243864 0.0722892 0.00948607 
0.000305478 0.0858621 0.00890514 0.00916018 0.0991702 0.00787012 0.0190697 0.111389 0.00656718 
0.0343851 0.118026 0.00389128 0.0498496 0.122306 0.000730957 0.0658959 0.117397 -0.00431863 
0.0805 0.110436 -0.00977615 0.0117727 0.0222391 0.0099479 0.010633 0.0301656 0.00887966 
0.00949239 0.0381828 0.00780883 0.00833192 0.0483293 0.00667712 0.00744098 0.0586055 0.00553357 
0.00958211 0.0703392 0.00425681 0.0123239 0.0819541 0.00291692 0.0193706 0.0927179 0.00112459 
0.0271089 0.102576 -0.000854542 0.038392 0.107791 -0.00379094 0.0497603 0.111226 -0.00703076 
0.0614615 0.107722 -0.0114539 0.072209 0.102583 -0.0161254 0.0194926 0.0236329 0.0073736 
0.0188223 0.0312035 0.00593689 0.018162 0.038844 0.00449236 0.0177369 0.0481251 0.00286449 
0.0175162 0.057481 0.00121616 0.0195952 0.0676784 -0.000662407 0.0220899 0.0777181 -0.00259747 
0.0275651 0.086628 -0.0049375 0.0334875 0.0947832 -0.00740273 0.0417015 0.0990703 -0.0105096 
0.0499577 0.101981 -0.0137939 0.0583788 0.0995257 -0.0177701 0.0661694 0.0957421 -0.0218745 
0.0269107 0.0244662 0.00478115 0.0266048 0.0316284 0.00298582 0.0263144 0.0388426 0.00117873 
0.0263887 0.0472773 -0.000904454 0.0266068 0.0557466 -0.0030126 0.0284424 0.0646049 -0.0054016 
0.0305482 0.0732915 -0.00783676 0.0345892 0.0807484 -0.0106028 0.0389018 0.0875833 -0.0134437 
0.044606 0.0912296 -0.0166688 0.0503215 0.0938024 -0.0199773 0.056081 0.0921882 -0.0236107 
0.0614372 0.0894878 -0.0272753 0.0338046 0.0245969 0.00214791 0.0337605 0.031402 -1.63689e-05 
0.0337337 0.0382478 -0.00219583 0.0341133 0.04605 -0.00473183 0.0345856 0.0538656 -0.00729584 
0.0361015 0.061832 -0.0101748 0.0377777 0.0696293 -0.0130899 0.0406031 0.0762155 -0.0162639 
0.0435736 0.0822723 -0.0194714 0.0472879 0.0856162 -0.0228504 0.0509844 0.0880722 -0.0262354 
0.0546117 0.0870653 -0.0296441 0.0579844 0.0851156 -0.0329964 0.0404443 0.024387 -0.0005051 
0.0406122 0.0308597 -0.00304333 0.0407974 0.0373652 -0.00559992 0.0413882 0.0446386 -0.00858754 
0.0420254 0.0519136 -0.0116055 0.0431843 0.0592048 -0.0149644 0.0444115 0.0663377 -0.0183496 
0.0461272 0.0723354 -0.021923 0.0478854 0.0778772 -0.0254926 0.0498618 0.0810827 -0.0290427 
0.0517923 0.0835293 -0.0325298 0.0535441 0.0830162 -0.0357709 0.0551521 0.0816557 -0.0388728 
0.0467099 0.0235804 -0.00321504 0.0470584 0.0298009 -0.00617223 0.0474239 0.0360512 -0.00915192 
0.0481868 0.0430034 -0.0126601 0.0489561 0.0499565 -0.0162032 0.0497967 0.05692 -0.0201394 
0.0506271 0.0637411 -0.0240951 0.0513847 0.069541 -0.0281912 0.0520937 0.0749303 -0.0322476 
0.0525539 0.0782158 -0.0361012 0.0529294 0.0808014 -0.039817 0.0529741 0.0806573 -0.042996 
0.0529474 0.0796902 -0.045938 0.0528257 0.0225352 -0.00594774 0.0533423 0.0285354 -0.00934189 
0.0538753 0.0345647 -0.0127631 0.0547949 0.0412785 -0.0168194 0.0556833 0.0479973 -0.0209161 
0.0562209 0.0547722 -0.0254685 0.0566755 0.0614226 -0.030035 0.0565356 0.0671808 -0.034703 
0.0562606 0.0725627 -0.0392963 0.0552934 0.0760156 -0.043506 0.054198 0.0787995 -0.0475013 
0.0526032 0.0789745 -0.0506604 0.0509939 0.0783224 -0.0534787 -0.03168 -0.00969505 0.0295474 
-0.0376558 -0.0056417 0.0323804 -0.0438574 -0.00149561 0.0353276 -0.0553648 0.00482949 0.0409538 
-0.066368 0.0114101 0.0469476 -0.071699 0.0208655 0.0570771 -0.0745016 0.0305727 0.0676218 
-0.0591848 0.0420856 0.0811424 -0.0393383 0.0527761 0.0934062 0.00372139 0.0592514 0.0992281 
0.0476872 0.0630865 0.100834 0.095187 0.0566243 0.0860001 0.136495 0.0482109 0.068254 
-0.0266527 -0.00231738 0.0271953 -0.0318825 0.00327479 0.0296314 -0.0372953 0.00899349 0.0321639 
-0.0470085 0.0176849 0.0369619 -0.0562198 0.0267174 0.0420519 -0.0597849 0.0395865 0.0504253 
-0.0611454 0.0527706 0.0590712 -0.0467056 0.0682119 0.0696695 -0.0285336 0.0825728 0.0791704 
0.00876533 0.0913957 0.0830472 0.0467834 0.0968662 0.083577 0.087606 0.0892624 0.0710532 
0.123339 0.0791856 0.0561203 -0.020023 0.00426983 0.024528 -0.0242801 0.0110345 0.0264145 
-0.0286662 0.0179413 0.0283736 -0.0360837 0.028187 0.0320392 -0.0430126 0.0387887 0.0359017 
-0.0444449 0.0533936 0.0419796 -0.0440836 0.0682579 0.0481696 -0.0308677 0.0849807 0.0551635 
-0.0148652 0.100493 0.0612643 0.0154179 0.109802 0.0627875 0.0462099 0.115691 0.061937 
0.0789868 0.108241 0.0518286 0.107984 0.0981736 0.0399052 -0.0126644 0.00963294 0.0216711 
-0.0159934 0.017086 0.0229682 -0.0194061 0.0246796 0.0243163 -0.0247816 0.0355745 0.0268622 
-0.0297072 0.0467917 0.0295291 -0.0295699 0.0616329 0.0335564 -0.0280176 0.076637 0.037591 
-0.0163242 0.0928085 0.0416788 -0.00261201 0.107767 0.045064 0.0214464 0.116509 0.0448485 
0.0458521 0.122115 0.042999 0.0716123 0.11549 0.0347772 0.0946491 0.106369 0.0252323 
-0.00471187 0.0139986 0.0186597 -0.00714935 0.0217456 0.019335 -0.00963187 0.0296176 0.0200413 
-0.0131721 0.0404242 0.0214782 -0.0163215 0.0514798 0.0229754 -0.0150736 0.0653354 0.0251516 
-0.0127629 0.0792242 0.0272756 -0.00283546 0.093351 0.0290262 0.00848811 0.106366 0.0302537 
0.0269664 0.113683 0.0288003 0.0456699 0.118435 0.0262628 0.065252 0.113181 0.0194966 
0.0829598 0.10577 0.011816 0.00313938 0.0171579 0.0155929 0.00141527 0.0248825 0.0156855 
-0.000327847 0.0327121 0.0157943 -0.00251767 0.0430102 0.016283 -0.00438133 0.0534873 0.0167927 
-0.00257567 0.0659779 0.0175389 1.57168e-05 0.0784109 0.0182071 0.00823829 0.0904311 0.0183168 
0.0174155 0.101474 0.0180432 0.0314851 0.107511 0.0158055 0.0456985 0.111496 0.0128583 
0.0604723 0.107482 0.00714375 0.0739714 0.101657 0.000813809 0.0109208 0.0194852 0.0124879 
0.00978721 0.0269691 0.0120249 0.00865195 0.0345354 0.0115666 0.0074782 0.044035 0.0112181 
0.00656207 0.0536461 0.0108658 0.00854421 0.0645101 0.0104725 0.0110869 0.0752524 0.00999855 
0.0176466 0.0851232 0.00894748 0.0248446 0.094175 0.00762567 0.0353134 0.0990297 0.00491636 
0.0458724 0.102309 0.0017515 0.0567826 0.0994443 -0.00319004 0.0668455 0.0951222 -0.00852359 
0.018214 0.0208584 0.00939719 0.0175084 0.028004 0.00842873 0.0168106 0.0352133 0.00745702 
0.0162944 0.0439164 0.00640882 0.0159749 0.0526836 0.00534319 0.0178698 0.0621719 0.00408153 
0.0201588 0.0715084 0.00274615 0.0252719 0.0797581 0.000882421 0.030808 0.0873216 -0.00116843 
0.038511 0.0913688 -0.00417823 0.0462681 0.0941828 -0.00747039 0.0542363 0.0921878 -0.0118637 
0.0616445 0.089001 -0.0164859 0.0252235 0.0216775 0.00631473 0.0248518 0.0284282 0.00486992 
0.0244925 0.0352261 0.003416 0.0244256 0.0431338 0.00174802 0.0244991 0.05107 5.51974e-05 
0.0261537 0.0593283 -0.00191721 0.0280699 0.0674244 -0.00395106 0.0318621 0.0743596 -0.00642535 
0.0359203 0.080727 -0.00901992 0.0413423 0.084184 -0.0122308 0.0467927 0.0866727 -0.0155978 
0.0523538 0.0853848 -0.0195735 0.0575612 0.0831201 -0.0236499 0.0317106 0.0217898 0.00325707 
0.0315759 0.0281795 0.0013573 0.0314548 0.0346057 -0.000556024 0.0316565 0.0418908 -0.00278783 
0.0319515 0.0491851 -0.00504863 0.0332969 0.0565823 -0.00763566 0.0348047 0.0638206 -0.0102717 
0.0374766 0.0699198 -0.0132594 0.0403022 0.0755357 -0.0163149 0.0439158 0.0786742 -0.0197185 
0.0475344 0.0810123 -0.0231818 0.0511727 0.0802285 -0.0268776 0.0545938 0.0786013 -0.030568 
0.0379444 0.0215594 0.000211446 0.0379996 0.0276045 -0.00213291 0.0380683 0.0336783 -0.00449459 
0.038451 0.0404247 -0.0072631 0.0388843 0.0471685 -0.0100632 0.0398871 0.0538838 -0.0132182 
0.0409691 0.0604496 -0.0164098 0.042618 0.0659449 -0.0198637 0.0443299 0.0710249 -0.0233401 
0.0463642 0.0739766 -0.0269323 0.0483814 0.0762488 -0.0305021 0.0503317 0.0758708 -0.033985 
0.0521674 0.0747429 -0.0373671 0.0437681 0.0207337 -0.00281847 0.0439773 0.0264987 -0.00562422 
0.0441991 0.0322889 -0.0084514 0.0447133 0.0386694 -0.0117818 0.0452416 0.0450451 -0.0151474 
0.0459283 0.0513672 -0.0189095 0.0466249 0.057553 -0.0226986 0.0473917 0.062763 -0.0266817 
0.0481435 0.0676013 -0.0306469 0.0488186 0.0705344 -0.0345206 0.0494467 0.0728502 -0.0382933 
0.0498915 0.0727587 -0.0416717 0.050289 0.0719532 -0.0448496 0.0494278 0.01967 -0.00584209 
0.0497766 0.0251806 -0.00911596 0.0501367 0.0307146 -0.0124155 0.0507628 0.0367985 -0.0163179 
0.0513689 0.042879 -0.0202596 0.05175 0.0489233 -0.0246443 0.0520772 0.0548461 -0.0290477 
0.0520182 0.0598985 -0.0335851 0.0518715 0.0646127 -0.0380662 0.0512753 0.0675943 -0.0422588 
0.0505992 0.0699974 -0.0462727 0.0496115 0.0701449 -0.04959 0.0486297 0.069591 -0.0526056 
-0.027554 -0.0120665 0.0343367 -0.0326048 -0.00839635 0.0382641 -0.0378236 -0.00464966 0.0423186 
-0.04699 0.000895444 0.0493598 -0.0556499 0.00662889 0.0567676 -0.0586105 0.0144811 0.0683001 
-0.0595107 0.0224704 0.0801463 -0.0456445 0.0314418 0.0942419 -0.0283939 0.0397516 0.106941 
0.00620034 0.0446703 0.112485 0.0414544 0.0476931 0.113884 0.0792816 0.0433218 0.099115 
0.112541 0.0374576 0.0813019 -0.0230326 -0.00508 0.0316956 -0.027476 -5.11676e-05 0.0351474 
-0.0320561 0.00508078 0.0387075 -0.0398494 0.0126354 0.0448124 -0.0471534 0.0204401 0.0512107 
-0.0489533 0.0310587 0.0609097 -0.0489439 0.0418461 0.0708037 -0.0359679 0.0538439 0.0820951 
-0.020159 0.0649679 0.092164 0.0101676 0.0716131 0.0959671 0.0410264 0.0758296 0.0964079 
0.0739608 0.0705741 0.0837354 0.103078 0.0634239 0.0685061 -0.0170984 0.00119151 0.0286645 
-0.020755 0.00727263 0.0314638 -0.0245088 0.0134697 0.034346 -0.0305472 0.0223909 0.0391746 
-0.0361243 0.031575 0.0442039 -0.0365133 0.0437166 0.0514897 -0.0354125 0.0559876 0.0588349 
-0.0236346 0.0691866 0.0666051 -0.00968765 0.081401 0.0733731 0.0153754 0.0885692 0.0750046 
0.0408273 0.0932022 0.0741745 0.0677957 0.0879475 0.0637444 0.0918574 0.0806605 0.0513433 
-0.0104816 0.00634159 0.0254042 -0.01338 0.0130588 0.0275029 -0.0163419 0.0198912 0.0296608 
-0.0207954 0.0294311 0.0332132 -0.0248323 0.0392109 0.0368904 -0.024183 0.0516886 0.041972 
-0.0223429 0.0642308 0.047024 -0.0119677 0.0772356 0.0518639 2.10664e-05 0.0892457 0.0559076 
0.0202795 0.0961576 0.0558704 0.0408143 0.100691 0.0540807 0.0624268 0.0959476 0.0454563 
0.0818926 0.0892383 0.0353598 -0.00330868 0.0105779 0.0219573 -0.00547219 0.017592 0.0233159 
-0.00767016 0.0247096 0.024712 -0.0106773 0.0342589 0.0269881 -0.0133261 0.0439957 0.0293272 
-0.0119422 0.0558424 0.0323748 -0.0096495 0.067668 0.035342 -0.000843839 0.0793417 0.0377329 
0.00910835 0.0900924 0.0395219 0.0249362 0.0961129 0.0382258 0.040953 0.100126 0.0357301 
0.0577066 0.0963102 0.0285558 0.072951 0.0907607 0.020337 0.00381969 0.0136832 0.0184581 
0.00225155 0.0207087 0.0191246 0.000668745 0.027822 0.0198118 -0.00125863 0.0370007 0.0209879 
-0.00288781 0.0463155 0.0221861 -0.00116236 0.0571599 0.0236333 0.00124589 0.0679227 0.0249797 
0.0085477 0.0781009 0.0256043 0.0166559 0.087458 0.0257802 0.028897 0.0926073 0.0236567 
0.0412679 0.0961073 0.0207213 0.0541451 0.0931747 0.0146193 0.0659779 0.0887609 0.00779321 
0.0109173 0.0160086 0.0149229 0.00984837 0.0228484 0.0149301 0.00877813 0.0297578 0.0149451 
0.00767784 0.0383041 0.0151428 0.00681397 0.0469353 0.0153362 0.00860987 0.0565213 0.015482 
0.0109013 0.0659827 0.0155277 0.0167446 0.0745519 0.0148566 0.0231417 0.0824228 0.0138618 
0.0323779 0.0867149 0.0112085 0.0417043 0.0897065 0.00801702 0.0513827 0.0876267 0.00272681 
0.0603624 0.0843319 -0.00304111 0.0176024 0.0174118 0.0114386 0.0168991 0.0239639 0.0108554 
0.0162016 0.0305703 0.010271 0.0156414 0.0384525 0.0096578 0.0152631 0.0463831 0.00902552 
0.0169319 0.0548564 0.00817909 0.0189557 0.0631859 0.00724209 0.023524 0.0704848 0.00565602 
0.0284708 0.0771915 0.00383976 0.0353574 0.0808637 0.000843879 0.0423079 0.0834965 -0.00250083 
0.0495073 0.0820757 -0.00720597 0.0562469 0.079647 -0.0122076 0.0240479 0.0182796 0.00798395 
0.0236327 0.0244847 0.00685032 0.0232268 0.0307304 0.00570879 0.02304 0.0379303 0.00438196 
0.022985 0.0451502 0.00302799 0.0244119 0.0525957 0.00136886 0.0260804 0.0598918 -0.00036628 
0.0294804 0.0661167 -0.00264622 0.0331282 0.0718462 -0.00508123 0.0380459 0.0750365 -0.00831092 
0.0430086 0.0773972 -0.0117492 0.0481468 0.0765228 -0.0160009 0.0530024 0.0748133 -0.0204056 
0.030017 0.0184443 0.00461152 0.0298061 0.024317 0.00297118 0.0296052 0.0302212 0.00131814 
0.0296389 0.0368624 -0.000632975 0.0297622 0.0435078 -0.00261534 0.0308939 0.0501994 -0.0049492 
0.0321814 0.0567455 -0.00734462 0.0345853 0.0622495 -0.0101813 0.0371424 0.0673288 -0.0131152 
0.0404846 0.0702318 -0.0165471 0.0438547 0.0724426 -0.0200829 0.0473333 0.0719545 -0.0240233 
0.0506492 0.0707417 -0.0280019 0.035755 0.018268 0.00127896 0.0357079 0.0238156 -0.00084687 
0.0356701 0.0293874 -0.00298929 0.03585 0.0355301 -0.00552139 0.0360813 0.0416668 -0.00808692 
0.036892 0.0477372 -0.0110286 0.0377861 0.0536709 -0.0140175 0.0392773 0.0586251 -0.0173444 
0.0408446 0.0632129 -0.020719 0.0428022 0.0659228 -0.024338 0.0447713 0.068043 -0.0279731 
0.046785 0.0678635 -0.0316712 0.0487281 0.0670396 -0.0353064 0.0410881 0.0174983 -0.0019701 
0.0411698 0.0227669 -0.00457467 0.0412594 0.0280564 -0.00719962 0.0415364 0.0338346 -0.0103031 
0.0418324 0.0396043 -0.0134426 0.0423421 0.0452788 -0.0169867 0.0428752 0.0508279 -0.0205664 
0.043577 0.0554778 -0.0244012 0.0442897 0.0597998 -0.0282413 0.0450585 0.0624405 -0.0321092 
0.0458163 0.0645479 -0.0359146 0.0465315 0.0645753 -0.0394764 0.0472367 0.0639933 -0.0428783 
0.0462594 0.0164913 -0.00518575 0.0464557 0.0214995 -0.00826637 0.0466585 0.0265264 -0.0113711 
0.047013 0.0319938 -0.0150421 0.0473562 0.0374532 -0.0187518 0.0475728 0.0428219 -0.0228963 
0.0477582 0.0480774 -0.0270659 0.0477198 0.0525214 -0.0314154 0.0476319 0.0566678 -0.035731 
0.0472902 0.059289 -0.0398725 0.0469128 0.0614146 -0.0438766 0.0463958 0.0616081 -0.0473447 
0.0459172 0.0612093 -0.050557 -0.0230764 -0.0145688 0.0385842 -0.0272513 -0.0112961 0.0433029 
-0.0315437 -0.0079618 0.0481506 -0.0385958 -0.00318021 0.0560304 -0.0451586 0.0017319 0.0642451 
-0.0462154 0.00811232 0.076228 -0.0456519 0.014541 0.0884007 -0.0334755 0.0213155 0.101934 
-0.0189134 0.027581 0.114017 0.00787595 0.0312379 0.118666 0.0351148 0.0336302 0.119456 
0.064107 0.0310904 0.105188 0.0899375 0.0274641 0.0879195 -0.0190758 -0.00800028 0.0356864 
-0.0227714 -0.00355134 0.0398786 -0.0265632 0.00097896 0.0441813 -0.0326144 0.00742059 0.0510817 
-0.0382036 0.0140333 0.0582515 -0.0385955 0.0225711 0.0684515 -0.0375523 0.0311636 0.0787516 
-0.0262239 0.0401491 0.0897696 -0.012856 0.0484573 0.0995124 0.0109632 0.0532943 0.102719 
0.035153 0.056492 0.102731 0.0607884 0.0532964 0.0902828 0.0837203 0.0487227 0.0752779 
-0.0138542 -0.00206553 0.0323446 -0.0169361 0.00331198 0.0358202 -0.0200873 0.00878091 0.0393813 
-0.0248663 0.0163975 0.0449489 -0.0292208 0.0241953 0.0507017 -0.028801 0.0340316 0.0585382 
-0.0271821 0.0438957 0.0663705 -0.0169689 0.0539592 0.074172 -0.00514225 0.0632533 0.0809193 
0.0149531 0.0686041 0.0822634 0.0353314 0.072189 0.0811978 0.0568134 0.0688863 0.0707344 
0.0761683 0.0640829 0.0582586 -0.00800132 0.00285822 0.0287449 -0.010485 0.00881615 0.0314488 
-0.0130146 0.0148654 0.0342145 -0.0166226 0.0230609 0.038434 -0.0198534 0.0314231 0.0427687 
-0.0188405 0.041662 0.0484004 -0.0168537 0.0518888 0.0539598 -0.00788735 0.0620302 0.0590013 
0.00231987 0.0713857 0.0631962 0.0188863 0.0767139 0.0630521 0.0356651 0.0803338 0.061139 
0.0532721 0.0772912 0.0523264 0.0692598 0.0727711 0.0419775 -0.00163406 0.00695817 0.0249351 
-0.00353211 0.0132128 0.0268222 -0.00545553 0.0195506 0.028749 -0.00797517 0.0278391 0.0316078 
-0.0101725 0.0362601 0.0345236 -0.00874464 0.0461714 0.0380797 -0.00655947 0.0560206 0.0415253 
0.00105287 0.0654248 0.0441785 0.00957694 0.0740885 0.0461819 0.0227734 0.0789569 0.0448549 
0.0361254 0.082325 0.0422816 0.0500841 0.0798417 0.0348476 0.0628757 0.0760226 0.0262977 
0.0047433 0.0100109 0.0210761 0.00332698 0.0163097 0.0221977 0.00189939 0.0226799 0.0233418 
0.000207475 0.0307266 0.0250162 -0.00121683 0.0388703 0.0267085 0.000369506 0.0481045 0.0286015 
0.00253563 0.0572411 0.0303712 0.008857 0.0656782 0.0312571 0.0158417 0.0734465 0.0316506 
0.026226 0.0777868 0.0295207 0.0367272 0.0808523 0.0265216 0.0476845 0.0789454 0.020133 
0.0578193 0.0758722 0.0129511 0.0111277 0.0123414 0.0171832 0.0101214 0.0185102 0.0175745 
0.00911358 0.0247364 0.0179749 0.00806961 0.0323103 0.0185864 0.00723884 0.0399447 0.0191901 
0.00880667 0.0482608 0.0197044 0.0108038 0.0564539 0.0201003 0.0158777 0.0637653 0.0196469 
0.0214222 0.0704977 0.0188316 0.0293791 0.0742629 0.0161607 0.0374267 0.0769906 0.0128976 
0.0458285 0.075672 0.00732456 0.0536785 0.0733757 0.00121335 0.0171788 0.0137887 0.0133722 
0.0164768 0.0197235 0.013114 0.0157783 0.0257036 0.0128553 0.0151624 0.0327457 0.0125867 
0.0147118 0.0398215 0.0122956 0.0161224 0.0472762 0.0117521 0.017847 0.0545974 0.0111023 
0.021823 0.0609614 0.00969133 0.0261323 0.0668275 0.00801658 0.0321496 0.0701406 0.00499012 
0.0382407 0.0726036 0.001566 0.0446192 0.0717508 -0.00340899 0.0506401 0.0700731 -0.00873222 
0.0230366 0.0147233 0.00960879 0.0225774 0.0203638 0.00874783 0.0221241 0.0260384 0.00787944 
0.0218084 0.0325144 0.00683665 0.0216142 0.0390028 0.00576346 0.0227869 0.0456291 0.00434831 
0.024179 0.0521199 0.00284354 0.0271439 0.0576403 0.000696423 0.0303368 0.0627382 -0.00163477 
0.0346981 0.0656709 -0.00490926 0.0391212 0.0679115 -0.00843452 0.0437853 0.0674534 -0.0129378 
0.0482416 0.0663024 -0.0176372 0.0284722 0.0149629 0.00597764 0.0281856 0.0203061 0.00457461 
0.0279048 0.0256756 0.00315927 0.0277639 0.0316643 0.00145484 0.0277076 0.0376526 -0.000283695 
0.0286031 0.0436375 -0.00240594 0.0296456 0.0494916 -0.00460168 0.0317418 0.0544082 -0.00732427 
0.0339889 0.0589594 -0.01017 0.0370086 0.0616378 -0.0136467 0.0400791 0.0637318 -0.0172655 
0.0433473 0.0635472 -0.0214384 0.0465118 0.0627566 -0.0256881 0.0337032 0.0148654 0.00241063 
0.0335549 0.01991 0.000494951 0.0334116 0.0249747 -0.00143689 0.0333846 0.030514 -0.00374841 
0.0334086 0.0360447 -0.00609568 0.0340079 0.041479 -0.00884525 0.0346926 0.0467901 -0.0116524 
0.0359892 0.0512193 -0.0148726 0.037373 0.0553312 -0.018164 0.0392038 0.0578164 -0.0218208 
0.0410745 0.0598006 -0.0255294 0.0431012 0.0598306 -0.0294405 0.045106 0.05932 -0.0333248 
0.0385459 0.014178 -0.00101202 0.038503 0.0189529 -0.0034139 0.0384635 0.0237447 -0.00583534 
0.0385035 0.0289324 -0.00871605 0.0385661 0.0341088 -0.0116339 0.0388836 0.0391586 -0.01497 
0.0392359 0.0440946 -0.0183506 0.0398374 0.0482153 -0.0220497 0.0404728 0.0520514 -0.0257771 
0.0412823 0.0544286 -0.0296499 0.0421163 0.0563535 -0.0334978 0.0430453 0.0565146 -0.0372491 
0.0440069 0.0561667 -0.0408804 0.0432333 0.0132544 -0.00437692 0.0432826 0.0177714 -0.00725443 
0.0433335 0.0223031 -0.0101547 0.0434217 0.0271781 -0.0135895 0.0435062 0.0320415 -0.0170627 
0.0435477 0.0367735 -0.020969 0.0435779 0.0414016 -0.0249076 0.0435259 0.0452852 -0.0290782 
0.0434588 0.0489109 -0.0332378 0.0433143 0.0512141 -0.037341 0.0431766 0.0531001 -0.0413481 
0.0430654 0.0533588 -0.0449804 0.0430304 0.0531268 -0.0484034 -0.0178735 -0.0173409 0.0417144 
-0.021274 -0.014495 0.0465991 -0.0247562 -0.0116 0.0515919 -0.0301615 -0.00754791 0.0591217 
-0.0351348 -0.00340383 0.0668914 -0.0352501 0.0017756 0.0773599 -0.0341277 0.00696834 0.0878476 
-0.0241351 0.0122565 0.0984726 -0.012452 0.0171717 0.107768 0.00789467 0.0201746 0.110252 
0.0285552 0.0223111 0.109603 0.0504398 0.0210683 0.096739 0.0701168 0.019038 0.0812745 
-0.0144242 -0.0112457 0.0386262 -0.017452 -0.00741083 0.0429911 -0.020547 -0.0035129 0.0474489 
-0.0252229 0.00186509 0.0540901 -0.0294943 0.00735974 0.0609239 -0.0292152 0.0141667 0.0699243 
-0.0278312 0.0209805 0.078894 -0.0185294 0.0278427 0.0876449 -0.00776314 0.0342036 0.0952174 
0.0105075 0.0379948 0.09675 0.0290396 0.0406591 0.095632 0.0485915 0.0389282 0.084177 
0.0662276 0.0362086 0.0704708 -0.00995059 -0.00569116 0.0350836 -0.0125112 -0.00105865 0.0387477 
-0.015121 0.00364411 0.0424839 -0.0188877 0.00999728 0.0479156 -0.0222861 0.0164732 0.0534779 
-0.0215411 0.0243304 0.0605095 -0.0198604 0.0321719 0.0674511 -0.0114733 0.0399009 0.0737474 
-0.00190073 0.0470536 0.0790551 0.0137475 0.0512533 0.0792957 0.0296021 0.0542182 0.0774666 
0.0462617 0.052368 0.0675652 0.0613821 0.0494349 0.0558455 -0.00490723 -0.00102118 0.0312762 
-0.00700912 0.00412926 0.0341805 -0.00914444 0.00935004 0.0371371 -0.0120651 0.0162228 0.0413236 
-0.0146599 0.0232086 0.0455881 -0.0135892 0.0314657 0.05073 -0.0117471 0.0396795 0.0557451 
-0.00437639 0.0475828 0.0598528 0.00392925 0.05489 0.0631528 0.0170264 0.0591422 0.0623138 
0.0302862 0.0621768 0.0598993 0.0441809 0.0604629 0.0513408 0.056882 0.0576718 0.0413563 
0.000600377 0.00292798 0.0272532 -0.00104974 0.00836852 0.0293494 -0.00271929 0.0138736 0.031479 
-0.00484526 0.0208947 0.0343915 -0.00669301 0.0280062 0.0373369 -0.00541084 0.0361333 0.0406531 
-0.00351774 0.0441853 0.0438248 0.00275383 0.0516989 0.0459605 0.00973278 0.0586412 0.0474625 
0.0203369 0.0626559 0.0457166 0.0310695 0.0655719 0.0428195 0.0423028 0.0642028 0.035432 
0.0526633 0.061843 0.0269778 0.00616874 0.00593085 0.0231841 0.00489564 0.0114465 0.0245161 
0.00361278 0.0170182 0.0258665 0.00210063 0.0239067 0.0276493 0.000820149 0.0308614 0.0294345 
0.00214588 0.0385596 0.0312471 0.0039482 0.0461606 0.0329142 0.00916609 0.053065 0.0335383 
0.0149149 0.059445 0.0336711 0.0233842 0.0631376 0.031286 0.0319596 0.0658732 0.0280678 
0.0409487 0.064876 0.0216005 0.04932 0.0629996 0.0143521 0.011779 0.00828112 0.0190834 
0.0108314 0.0137236 0.0196812 0.00988067 0.0192119 0.0202853 0.00885765 0.025774 0.021038 
0.00802046 0.032377 0.0217726 0.00927395 0.0394402 0.0223036 0.0108877 0.0463908 0.0226998 
0.0150832 0.0525345 0.0221299 0.0196684 0.058216 0.0211893 0.0262498 0.0615282 0.0183494 
0.0329233 0.0640408 0.0149217 0.039956 0.0634343 0.00920165 0.0465806 0.0620771 0.00293503 
0.017143 0.00980158 0.0150835 0.0164405 0.0150704 0.0150257 0.0157383 0.0203756 0.0149658 
0.0150422 0.0265377 0.0148554 0.0144916 0.0327214 0.0147155 0.0155776 0.0391498 0.0142431 
0.016933 0.0454599 0.0136514 0.0202188 0.0509225 0.0122039 0.0237908 0.0559809 0.0104787 
0.0288299 0.0589679 0.00732988 0.033953 0.0612846 0.00377098 0.0394031 0.0609871 -0.00138736 