# vtk DataFile Version 2.0
vtk output
ASCII
DATASET RECTILINEAR_GRID
DIMENSIONS 13 13 13
X_COORDINATES 13 float
5 5.20833 5.41667 5.625 5.83333 6.04167 6.25 6.45833 6.66667 
6.875 7.08333 7.29167 7.5 
Y_COORDINATES 13 float
7.5 7.70833 7.91667 8.125 8.33333 8.54167 8.75 8.95833 9.16667 
9.375 9.58333 9.79167 10 
Z_COORDINATES 13 float
5 5.20833 5.41667 5.625 5.83333 6.04167 6.25 6.45833 6.66667 
6.875 7.08333 7.29167 7.5 
POINT_DATA 2197
VECTORS grad float
-0.18711 -0.147859 -0.0615161 -0.192483 -0.13965 -0.0344872 -0.191838 -0.133399 -0.00423799 
-0.18526 -0.12888 0.0273762 -0.173848 -0.125772 0.0601025 -0.156625 -0.123975 0.0902627 
-0.135393 -0.123081 0.118653 -0.110544 -0.123193 0.139716 -0.0835939 -0.123888 0.156524 
-0.0575672 -0.125336 0.163749 -0.0319881 -0.127149 0.166329 -0.0118389 -0.12942 0.16156 
0.0061382 -0.131874 0.153852 -0.176083 -0.148808 -0.0521703 -0.182783 -0.138407 -0.0266036 
-0.183768 -0.129447 0.00211272 -0.178723 -0.12205 0.0321579 -0.168765 -0.115927 0.0632858 
-0.152901 -0.111345 0.0919261 -0.132963 -0.107826 0.118851 -0.109319 -0.105921 0.138685 
-0.0835232 -0.104953 0.154402 -0.0584598 -0.105507 0.16084 -0.0337519 -0.106798 0.162777 
-0.0141521 -0.109147 0.157564 0.00340451 -0.111918 0.149489 -0.164028 -0.146929 -0.043003 
-0.171757 -0.134955 -0.0191793 -0.174181 -0.123762 0.00764662 -0.170596 -0.113858 0.0357196 
-0.162114 -0.105004 0.0648088 -0.147736 -0.0978597 0.0915233 -0.129292 -0.0918941 0.1166 
-0.107116 -0.088113 0.13498 -0.0827746 -0.0856002 0.149472 -0.0589604 -0.0853557 0.155201 
-0.0354022 -0.086211 0.156682 -0.0165489 -0.0887146 0.151345 0.000422371 -0.0918775 0.143282 
-0.151637 -0.140101 -0.0359478 -0.159427 -0.127711 -0.014331 -0.162445 -0.115554 0.00997119 
-0.159805 -0.104374 0.0353371 -0.152555 -0.0939896 0.0615697 -0.13974 -0.085333 0.0856128 
-0.123086 -0.0778679 0.108146 -0.102882 -0.0728956 0.124684 -0.0806174 -0.0693709 0.137742 
-0.0586841 -0.0685645 0.142975 -0.0369117 -0.0690761 0.144413 -0.0192864 -0.0716317 0.139657 
-0.00331987 -0.075005 0.132423 -0.13916 -0.132004 -0.0294342 -0.146762 -0.119494 -0.0101432 
-0.150157 -0.106699 0.0114729 -0.148331 -0.094559 0.0339432 -0.14225 -0.0829516 0.0571096 
-0.131017 -0.073052 0.0782902 -0.11623 -0.0643303 0.0981015 -0.0981275 -0.0583426 0.112699 
-0.078099 -0.0539424 0.124268 -0.0582086 -0.0526347 0.129059 -0.0383852 -0.0528265 0.130562 
-0.0221112 -0.0554077 0.126566 -0.007257 -0.0589449 0.120372 -0.12745 -0.122842 -0.0252235 
-0.134411 -0.11077 -0.00828468 -0.137695 -0.0981651 0.0106019 -0.136321 -0.0860064 0.0301419 
-0.131149 -0.0742114 0.0502142 -0.121379 -0.0640254 0.0685386 -0.108437 -0.0549488 0.0856576 
-0.0925086 -0.0485906 0.0983675 -0.074846 -0.0438108 0.108517 -0.057176 -0.0421691 0.112951 
-0.0395024 -0.0420489 0.114615 -0.0247862 -0.0444209 0.111533 -0.0112531 -0.0477899 0.106554 
-0.11589 -0.113472 -0.0214622 -0.12212 -0.101947 -0.00688062 -0.1252 -0.0896934 0.00926802 
-0.124206 -0.0777003 0.0258708 -0.119893 -0.0659198 0.0428436 -0.111562 -0.0556338 0.058313 
-0.100461 -0.0463784 0.0727457 -0.0867212 -0.0397755 0.0835786 -0.0714497 -0.0347129 0.0923213 
-0.0560346 -0.0327697 0.0964168 -0.04055 -0.032339 0.0982589 -0.027432 -0.034456 0.096121 
-0.0152607 -0.037592 0.0923911 -0.105615 -0.105169 -0.0194235 -0.111066 -0.0944441 -0.00690373 
-0.113806 -0.0829727 0.00687742 -0.113026 -0.0716785 0.0209775 -0.109378 -0.0605287 0.0353376 
-0.102268 -0.0507291 0.0484248 -0.0927698 -0.0418605 0.0606343 -0.080973 -0.0354314 0.0699038 
-0.0678415 -0.0304188 0.0774661 -0.0544871 -0.0283057 0.0812389 -0.0410246 -0.0275984 0.0831743 
-0.02945 -0.0293197 0.0817861 -0.0186305 -0.0320125 0.0790685 -0.0955185 -0.0970148 -0.0176251 
-0.100184 -0.087125 -0.00712599 -0.102565 -0.0764964 0.00433936 -0.101976 -0.0659755 0.0159974 
-0.0989671 -0.0555424 0.0278125 -0.0930468 -0.0463109 0.0385835 -0.0851186 -0.037908 0.0486346 
-0.0752303 -0.0317111 0.0563843 -0.0642037 -0.026795 0.0627979 -0.0528828 -0.0245303 0.0662503 
-0.0414192 -0.0235513 0.068267 -0.0313804 -0.0248573 0.0676014 -0.0219114 -0.0270774 0.065863 
-0.0869505 -0.090588 -0.01684 -0.0909618 -0.0815947 -0.00793511 -0.0930231 -0.0719374 0.00173357 
-0.0925631 -0.062366 0.011528 -0.0900487 -0.0528646 0.021425 -0.0850692 -0.0444177 0.0304615 
-0.0783897 -0.0366981 0.0389047 -0.0700295 -0.0309169 0.0455002 -0.0606934 -0.026261 0.0510229 
-0.0510362 -0.0239511 0.0541663 -0.0412234 -0.0227787 0.056156 -0.0325091 -0.0236742 0.0559437 
-0.0242343 -0.025397 0.0548507 -0.0785183 -0.0843148 -0.0161448 -0.0818871 -0.0762233 -0.0087964 
-0.0836326 -0.0675489 -0.000878231 -0.083296 -0.0589427 0.00710404 -0.081263 -0.0503919 0.0151385 
-0.0772022 -0.042749 0.0224923 -0.0717428 -0.0357321 0.0293766 -0.064877 -0.0303827 0.0348504 
-0.0571944 -0.0260017 0.0395051 -0.0491681 -0.023656 0.0423404 -0.0409751 -0.0222971 0.0442935 
-0.0335666 -0.0227827 0.0445107 -0.0264719 -0.024006 0.0440334 -0.0716317 -0.0815053 -0.0159296 
-0.0745274 -0.073878 -0.00972269 -0.0760434 -0.0657158 -0.00306597 -0.0758043 -0.0576183 0.00362919 
-0.0741351 -0.0495736 0.0103557 -0.0707597 -0.0423639 0.0165299 -0.0662077 -0.0357301 0.0223232 
-0.0604557 -0.0306263 0.0269901 -0.0540069 -0.0264109 0.031003 -0.047219 -0.0240701 0.0335586 
-0.0402667 -0.0226382 0.0354076 -0.0339002 -0.0229279 0.0358401 -0.0277679 -0.0239062 0.035706 
-0.0648108 -0.0788432 -0.0157347 -0.0672407 -0.0716615 -0.0106518 -0.0685309 -0.0639914 -0.00523566 
-0.0683881 -0.0563833 0.000194724 -0.0670777 -0.0488257 0.00563676 -0.0643779 -0.0420335 0.0106528 
-0.0607199 -0.0357692 0.0153751 -0.0560655 -0.030903 0.0192486 -0.0508326 -0.0268486 0.0226293 
-0.0452665 -0.0245144 0.0249063 -0.0395388 -0.0230143 0.0266482 -0.034203 -0.0231172 0.027287 
-0.0290239 -0.0238613 0.0274844 -0.162575 -0.138441 -0.0645952 -0.165743 -0.131466 -0.039509 
-0.163618 -0.126281 -0.0126015 -0.156812 -0.122737 0.0146355 -0.146192 -0.120532 0.0421409 
-0.13141 -0.119601 0.0672083 -0.113759 -0.119547 0.0905945 -0.0936951 -0.120497 0.108397 
-0.0722302 -0.122031 0.122959 -0.0515469 -0.12434 0.130437 -0.0312427 -0.127026 0.134481 
-0.0149788 -0.13019 0.132728 -0.000331117 -0.133544 0.128655 -0.153191 -0.139898 -0.0552016 
-0.157633 -0.131133 -0.0317886 -0.157074 -0.123759 -0.00642687 -0.151736 -0.117911 0.0193548 
-0.142504 -0.113306 0.0454786 -0.128987 -0.110141 0.0692708 -0.112514 -0.107968 0.0914553 
-0.0935138 -0.107196 0.108223 -0.0730459 -0.107238 0.121846 -0.0531827 -0.108545 0.128575 
-0.0336128 -0.110466 0.13196 -0.0178038 -0.113261 0.12968 -0.00349922 -0.116406 0.125133 
-0.142953 -0.138871 -0.0459556 -0.148443 -0.128857 -0.0244111 -0.149311 -0.119712 -0.000858111 
-0.145391 -0.111881 0.023179 -0.137569 -0.105122 0.0476106 -0.125405 -0.0999123 0.0698504 
-0.110246 -0.0957712 0.0905785 -0.0924811 -0.0933988 0.106162 -0.0732025 -0.0920533 0.118758 
-0.0543423 -0.0924482 0.124786 -0.035685 -0.093687 0.127629 -0.0204651 -0.0961984 0.125038 
-0.00662025 -0.0992189 0.120273 -0.132572 -0.1333 -0.0387326 -0.138311 -0.123004 -0.0192678 
-0.139904 -0.113117 0.00207674 -0.136961 -0.104274 0.0238758 -0.130321 -0.0962826 0.0460451 
-0.119519 -0.0898258 0.0662165 -0.105845 -0.0844275 0.0850101 -0.0896305 -0.0809925 0.0991445 
-0.0719403 -0.0786976 0.110573 -0.0545 -0.0784415 0.116049 -0.037181 -0.0791739 0.118638 
-0.0228952 -0.0814586 0.116237 -0.00982286 -0.0843642 0.111841 -0.122153 -0.126563 -0.0320283 
-0.127938 -0.116233 -0.0146974 -0.130076 -0.105869 0.00433621 -0.127996 -0.0962632 0.0237706 
-0.12248 -0.0872753 0.0435316 -0.113041 -0.0797757 0.0615024 -0.100897 -0.0733025 0.0782387 
-0.0863138 -0.068943 0.0908563 -0.0703143 -0.0658109 0.101082 -0.0544008 -0.0649708 0.106043 
-0.0385291 -0.0652419 0.10845 -0.025266 -0.0673145 0.10637 -0.0130464 -0.0701076 0.102493 
-0.112451 -0.118619 -0.0275532 -0.117865 -0.108668 -0.0122898 -0.120095 -0.0984485 0.00444086 
-0.118532 -0.0887825 0.0214901 -0.11388 -0.0795675 0.0387989 -0.105671 -0.071737 0.0545387 
-0.0950084 -0.0648614 0.0691966 -0.0820986 -0.0600836 0.080314 -0.0678836 -0.0565237 0.0893756 
-0.0536347 -0.0553016 0.0939113 -0.0393693 -0.055213 0.0962527 -0.0272952 -0.0570146 0.0946665 
-0.0160977 -0.0595724 0.0915092 -0.10289 -0.110439 -0.0235131 -0.107852 -0.100948 -0.0103042 
-0.110084 -0.0909942 0.00412506 -0.108971 -0.0814052 0.0187851 -0.105131 -0.0721133 0.0336333 
-0.0981256 -0.0640909 0.0471362 -0.0889362 -0.0569442 0.0597115 -0.077708 -0.0518466 0.069332 
-0.0652959 -0.0479389 0.0772368 -0.0527384 -0.0463742 0.0813652 -0.0401104 -0.0459457 0.0836626 
-0.0292578 -0.047465 0.0826051 -0.0191154 -0.0497634 0.0802055 -0.0943696 -0.102972 -0.0211871 
-0.0987857 -0.0941086 -0.00976974 -0.10085 -0.0847383 0.00265112 -0.0999987 -0.0756311 0.0152343 
-0.096773 -0.0667381 0.0279498 -0.0907781 -0.0589857 0.0395233 -0.0828735 -0.0520197 0.0503092 
-0.0731573 -0.0469529 0.0586405 -0.0623893 -0.042989 0.0655467 -0.0514113 -0.0412314 0.0693141 
-0.0403317 -0.0405435 0.0715596 -0.0306828 -0.0417347 0.0709625 -0.0216064 -0.0436775 0.0692282 
-0.0859951 -0.0956041 -0.0191003 -0.0898521 -0.0873926 -0.00943776 -0.091723 -0.0786497 0.00101557 
-0.0911085 -0.0700806 0.0115655 -0.0884689 -0.0616531 0.022194 -0.0834581 -0.0542349 0.0318809 
-0.076812 -0.0475127 0.0409183 -0.0685842 -0.0425257 0.0479896 -0.0594381 -0.0385462 0.0539192 
-0.0500242 -0.0366166 0.057332 -0.0404805 -0.0356807 0.0595245 -0.0320329 -0.0365374 0.0593782 
-0.0240239 -0.0381111 0.0582964 -0.0788107 -0.0896306 -0.0180755 -0.0821747 -0.0821128 -0.009817 
-0.0838383 -0.0741036 -0.000922599 -0.0833743 -0.0662286 0.0080315 -0.0811768 -0.058463 0.0170342 
-0.0769463 -0.0515834 0.0252556 -0.0713137 -0.0453148 0.0329381 -0.0643038 -0.0405873 0.0390179 
-0.0564941 -0.0367545 0.044167 -0.048395 -0.0347612 0.0472606 -0.0401556 -0.0336598 0.0493575 
-0.0327691 -0.0342012 0.0495087 -0.0257238 -0.0353999 0.0488817 -0.0717322 -0.083781 -0.017145 
-0.0746089 -0.0769608 -0.0102595 -0.0760639 -0.0696946 -0.00288767 -0.0757429 -0.0625276 0.00450952 
-0.0739747 -0.0554414 0.0119274 -0.0705063 -0.0491185 0.0187207 -0.0658655 -0.0433221 0.0250833 
-0.0600494 -0.03887 0.0301955 -0.0535507 -0.0351985 0.0345816 -0.0467443 -0.0331512 0.037359 
-0.0397886 -0.0318915 0.0393564 -0.0334508 -0.0321194 0.0397916 -0.02736 -0.0329425 0.0396018 
-0.065861 -0.0811193 -0.0167636 -0.0683636 -0.0746596 -0.0109058 -0.0696531 -0.067785 -0.0046586 
-0.069434 -0.0609989 0.00160004 -0.0679857 -0.054285 0.00786801 -0.0650922 -0.0482746 0.0136252 
-0.0612019 -0.0427493 0.0190301 -0.056297 -0.0384664 0.0234238 -0.0508028 -0.0349048 0.0272304 
-0.0450051 -0.0328523 0.0297315 -0.0390603 -0.0315314 0.0315994 -0.0335793 -0.0316098 0.0321786 
-0.0282839 -0.0322479 0.0322421 -0.0600411 -0.0785933 -0.0164055 -0.0621745 -0.0724798 -0.0115607 
-0.0633002 -0.0659818 -0.00642127 -0.0631813 -0.0595627 -0.00128339 -0.0620483 -0.053208 0.0038532 
-0.0597216 -0.0474996 0.0085909 -0.0565717 -0.042237 0.0130535 -0.0525659 -0.0381187 0.0167394 
-0.0480632 -0.0346649 0.0199743 -0.0432622 -0.0326091 0.0222006 -0.0383165 -0.0312312 0.0239379 
-0.0336843 -0.031167 0.024655 -0.0291775 -0.0316284 0.0249641 -0.138857 -0.128695 -0.068797 
-0.141063 -0.123368 -0.0456249 -0.138628 -0.119463 -0.0215652 -0.132335 -0.117 0.00216788 
-0.122898 -0.115711 0.0256349 -0.11032 -0.115617 0.0468472 -0.0955758 -0.116347 0.0665046 
-0.079147 -0.11807 0.0817957 -0.0617399 -0.120369 0.0945517 -0.0450386 -0.12347 0.101921 
-0.0286796 -0.12696 0.10668 -0.0155077 -0.130957 0.106842 -0.00361083 -0.135157 0.105165 
-0.131533 -0.130596 -0.059342 -0.134767 -0.123729 -0.0379592 -0.13366 -0.118 -0.015453 
-0.12865 -0.11363 0.00689809 -0.120458 -0.110368 0.0291227 -0.109021 -0.108412 0.0492209 
-0.0953458 -0.107357 0.0678527 -0.0798751 -0.107552 0.0822498 -0.0633619 -0.108471 0.0941879 
-0.047391 -0.110498 0.100867 -0.0316831 -0.113062 0.104996 -0.0189038 -0.116384 0.104617 
-0.00729593 -0.12001 0.102435 -0.123442 -0.130388 -0.0499796 -0.12755 -0.122422 -0.0305271 
-0.127678 -0.115215 -0.00977247 -0.123918 -0.109207 0.0109822 -0.116989 -0.104177 0.0317367 
-0.106753 -0.100519 0.0505215 -0.0942367 -0.0978078 0.067948 -0.0798346 -0.0965789 0.0813451 
-0.0643378 -0.0962108 0.0924026 -0.0492126 -0.097251 0.0984234 -0.0342676 -0.0989739 0.102002 
-0.0219682 -0.101715 0.101236 -0.0107271 -0.104862 0.098733 -0.115105 -0.12607 -0.0425129 
-0.119488 -0.117821 -0.0250285 -0.120311 -0.109979 -0.00625196 -0.11745 -0.103115 0.0125885 
-0.111585 -0.0970482 0.0314811 -0.102522 -0.09232 0.048595 -0.0912535 -0.088515 0.0644821 
-0.0781118 -0.0863085 0.0766954 -0.0638825 -0.0850302 0.0867755 -0.0498743 -0.0853525 0.0922444 
-0.0359732 -0.0864508 0.0954775 -0.0243971 -0.0887591 0.0946903 -0.0137509 -0.0915512 0.092295 
-0.106706 -0.120697 -0.0355322 -0.11121 -0.112374 -0.0200256 -0.112589 -0.104114 -0.0032853 
-0.110536 -0.0965945 0.0135596 -0.105685 -0.089679 0.0304897 -0.0977877 -0.0840425 0.0458409 
-0.0877899 -0.0792881 0.0601032 -0.0759577 -0.0762182 0.0710855 -0.0630603 -0.0741264 0.0801632 
-0.0502385 -0.0737998 0.0851075 -0.0374534 -0.074329 0.0880476 -0.0266629 -0.076243 0.0873326 
-0.0166703 -0.078711 0.0851556 -0.0988336 -0.113985 -0.0307089 -0.103117 -0.105934 -0.0170358 
-0.104672 -0.0977491 -0.00226654 -0.103125 -0.090124 0.012599 -0.0990521 -0.0829547 0.0275429 
-0.0921867 -0.0769642 0.041107 -0.0833956 -0.0717866 0.0537195 -0.0728835 -0.0682693 0.0634795 
-0.0613722 -0.0657161 0.0715833 -0.0498314 -0.0649589 0.076083 -0.0382762 -0.0650725 0.0788352 
-0.0284001 -0.0666404 0.0783523 -0.0191957 -0.0687899 0.0765753 -0.0910646 -0.107012 -0.0263066 
-0.0950606 -0.099299 -0.0144387 -0.0967159 -0.0912868 -0.00162787 -0.0956179 -0.0836632 0.0112614 
-0.0922766 -0.0763563 0.0242146 -0.0864167 -0.07012 0.0359869 -0.0788197 -0.0646219 0.0469447 
-0.0696299 -0.0607384 0.0554842 -0.0595153 -0.0577925 0.0626194 -0.0492737 -0.0566473 0.0666902 
-0.0389707 -0.0563752 0.0692751 -0.0300342 -0.0576062 0.0690555 -0.0216443 -0.0594385 0.067714 
-0.0840877 -0.100413 -0.0236189 -0.0876951 -0.093172 -0.0133069 -0.0892809 -0.0855797 -0.00220292 
-0.0884528 -0.078276 0.00895506 -0.085658 -0.0712072 0.020157 -0.0806352 -0.0650958 0.0303535 
-0.0740758 -0.0596445 0.0398566 -0.0660787 -0.0556939 0.0473234 -0.0572466 -0.0526148 0.0536078 
-0.0482313 -0.0512431 0.0573054 -0.0391272 -0.0506994 0.0597487 -0.0311301 -0.0516175 0.0597853 
-0.0235759 -0.0531203 0.0588593 -0.0772212 -0.0938673 -0.0211704 -0.0804259 -0.0871157 -0.0123797 
-0.0819185 -0.0799781 -0.00294734 -0.0813355 -0.0730385 0.0065135 -0.0790612 -0.0662603 0.0159976 
-0.0748521 -0.0603255 0.0246485 -0.0693085 -0.0549722 0.0327248 -0.0624859 -0.0509963 0.0391395 
-0.0549206 -0.0478202 0.0445894 -0.0471213 -0.0462446 0.0479216 -0.0392086 -0.0454452 0.0502269 
-0.0321509 -0.0460537 0.0505189 -0.0254353 -0.0472254 0.0500055 -0.0712575 -0.0883916 -0.01984 
-0.0740886 -0.0821658 -0.0122751 -0.0754491 -0.0755735 -0.00418529 -0.0750202 -0.069134 0.00391721 
-0.0731332 -0.0628191 0.0120301 -0.0695695 -0.0572444 0.0194473 -0.0648496 -0.0521803 0.0263847 
-0.0590009 -0.0483481 0.0319496 -0.0524967 -0.0452313 0.0367176 -0.0457391 -0.0435653 0.0397307 
-0.0388586 -0.0426028 0.041893 -0.032647 -0.0429441 0.04236 -0.0267031 -0.0438069 0.0421488 
-0.0653741 -0.0830111 -0.0186089 -0.0678341 -0.0773142 -0.0122436 -0.0690592 -0.0712753 -0.00546711 
-0.0687762 -0.065348 0.00130717 -0.0672645 -0.0595117 0.00807962 -0.0643314 -0.0543135 0.0142908 
-0.0604181 -0.0495554 0.020115 -0.0555255 -0.045882 0.0248481 -0.0500642 -0.0428384 0.0289477 
-0.0443327 -0.0410921 0.031646 -0.0384702 -0.0399749 0.0336647 -0.0330965 -0.0400527 0.0342995 
-0.0279183 -0.0406085 0.0343806 -0.0604157 -0.0805214 -0.0180046 -0.0625803 -0.0750996 -0.0125518 
-0.0636866 -0.0693558 -0.00676511 -0.0635032 -0.0637099 -0.000985945 -0.0622689 -0.0581438 0.00478708 
-0.0598151 -0.0531666 0.0100976 -0.0565202 -0.0485955 0.0150891 -0.0523707 -0.0450322 0.019188 
-0.0477249 -0.0420541 0.0227684 -0.0428118 -0.0402894 0.0251975 -0.0377689 -0.0391131 0.0270682 
-0.0330944 -0.039068 0.0277849 -0.0285671 -0.0394753 0.0280399 -0.0554967 -0.0781546 -0.0174269 
-0.0573689 -0.0729972 -0.0128745 -0.0583573 -0.0675375 -0.00806381 -0.0582715 -0.0621632 -0.00326558 
-0.0573104 -0.0568584 0.00152252 -0.0553294 -0.0520955 0.00594531 -0.0526449 -0.0477065 0.0101162 
-0.0492294 -0.0442512 0.0135891 -0.0453896 -0.0413382 0.0166568 -0.0412859 -0.0395577 0.0188186 
-0.0370543 -0.0383264 0.0205411 -0.033073 -0.0381644 0.021336 -0.0291919 -0.0384301 0.0217599 
-0.117373 -0.119377 -0.071577 -0.119028 -0.115641 -0.0506286 -0.116672 -0.11299 -0.0293263 
-0.111091 -0.111567 -0.00870661 -0.102883 -0.111145 0.0113568 -0.0922471 -0.111824 0.0293796 
-0.0799368 -0.113262 0.0459952 -0.0664363 -0.115672 0.0591637 -0.0522446 -0.118645 0.0703306 
-0.0386985 -0.122438 0.0773633 -0.0254655 -0.12663 0.0823916 -0.0148153 -0.131359 0.0837582 
-0.00519834 -0.136303 0.0836603 -0.111997 -0.121566 -0.0624096 -0.114444 -0.116492 -0.0431971 
-0.113172 -0.112303 -0.023367 -0.108678 -0.109282 -0.00401647 -0.101558 -0.107213 0.0149434 
-0.0919361 -0.106312 0.0319989 -0.0805886 -0.106217 0.0477411 -0.0679552 -0.107243 0.0601442 
-0.054575 -0.108921 0.0706085 -0.0416917 -0.111591 0.0770271 -0.0290495 -0.114741 0.0814842 
-0.0187459 -0.118566 0.0823408 -0.00937792 -0.122661 0.0817573 -0.105933 -0.122003 -0.0532747 
-0.10907 -0.115933 -0.0359069 -0.108819 -0.110483 -0.0177025 -0.10539 -0.106081 0.000216906 
-0.0993695 -0.102533 0.017904 -0.090799 -0.100186 0.0338466 -0.0804698 -0.0986652 0.0485861 
-0.0687687 -0.0984017 0.060147 -0.056271 -0.0988679 0.0698622 -0.0441153 -0.100498 0.0756866 
-0.0321256 -0.102693 0.0796243 -0.0222193 -0.105715 0.0800782 -0.0131463 -0.109068 0.0791386 
-0.0994786 -0.118791 -0.0458142 -0.102871 -0.112403 -0.0302447 -0.10324 -0.106375 -0.0137874 
-0.100601 -0.101219 0.00249781 -0.0955133 -0.0967741 0.0186428 -0.0879448 -0.0934834 0.0332237 
-0.0786657 -0.0909891 0.0467259 -0.0679994 -0.0898103 0.057314 -0.0565275 -0.0893954 0.06621 
-0.0452628 -0.0902575 0.0715123 -0.0340987 -0.0917387 0.0750722 -0.0247538 -0.0941715 0.0753848 
-0.0161367 -0.096985 0.0743985 -0.0929241 -0.114643 -0.0387831 -0.0964615 -0.108112 -0.025 
-0.0973455 -0.101681 -0.010321 -0.0954287 -0.095932 0.00427806 -0.0912295 -0.0907379 0.0188118 
-0.0846502 -0.0866337 0.0319672 -0.0764294 -0.0832812 0.044172 -0.0668241 -0.0812833 0.0537538 
-0.0564149 -0.0800719 0.0618127 -0.0460831 -0.0802353 0.0666115 -0.0357889 -0.0810653 0.0698297 
-0.0270476 -0.0829635 0.0700681 -0.0189275 -0.085289 0.0691146 -0.086679 -0.109085 -0.0337564 
-0.0900904 -0.102709 -0.0215822 -0.091182 -0.0962767 -0.00858666 -0.0897353 -0.0903716 0.0043644 
-0.0862201 -0.0848959 0.0172792 -0.0805029 -0.0804169 0.0289919 -0.073267 -0.0766254 0.0398757 
-0.06471 -0.0741574 0.0484552 -0.0553858 -0.0724579 0.0556967 -0.0460456 -0.0721491 0.0600587 
-0.0366976 -0.0725147 0.0630246 -0.028657 -0.0739998 0.0633256 -0.0211395 -0.0759328 0.0625606 
-0.0804942 -0.103253 -0.0291208 -0.0837269 -0.0970889 -0.0185209 -0.084966 -0.0907336 -0.00719035 
-0.0839403 -0.084758 0.00412021 -0.0810692 -0.0790918 0.0154144 -0.0761893 -0.0743237 0.0256812 
-0.0699239 -0.070175 0.0352395 -0.0624127 -0.067305 0.0428174 -0.0541779 -0.0651776 0.0492454 
-0.0458407 -0.0644408 0.0531836 -0.0374537 -0.0643783 0.0559146 -0.0301329 -0.0654741 0.0563049 
-0.0232385 -0.0670332 0.0557589 -0.0748623 -0.09751 -0.0261436 -0.0778199 -0.0916755 -0.0168887 
-0.0790515 -0.0855996 -0.00700676 -0.0782859 -0.0798111 0.00285861 -0.0758931 -0.0742566 0.0127105 
-0.071705 -0.0695023 0.0216853 -0.0662788 -0.0652999 0.0300553 -0.0597108 -0.0622875 0.0367376 
-0.0524798 -0.0599661 0.0424398 -0.0450957 -0.0589701 0.0460106 -0.0376373 -0.0586168 0.0485479 
-0.0310458 -0.0593981 0.0490532 -0.0248011 -0.0606331 0.0487458 -0.0693076 -0.0917798 -0.0233978 
-0.0719767 -0.0862909 -0.0154559 -0.073179 -0.0805227 -0.0069924 -0.0726511 -0.0749571 0.00145503 
-0.0707134 -0.0695566 0.00988936 -0.0671969 -0.0648584 0.0175937 -0.0625914 -0.0606445 0.0247948 
-0.0569525 -0.0575259 0.0305961 -0.0507133 -0.0550433 0.0355848 -0.0442754 -0.0538117 0.038796 
-0.037741 -0.0531867 0.0411452 -0.0318802 -0.0536638 0.0417692 -0.0262888 -0.0545818 0.0417031 
-0.0644066 -0.0868264 -0.0217882 -0.0667939 -0.0817209 -0.0149106 -0.0679169 -0.0763432 -0.00759911 
-0.0675383 -0.0711223 -0.000305478 -0.0659362 -0.0660293 0.00697357 -0.0629525 -0.0615527 0.0136397 
-0.0590159 -0.0575012 0.0198832 -0.0541556 -0.0544351 0.0249566 -0.0487589 -0.0519414 0.0293507 
-0.0431449 -0.0505918 0.0322523 -0.0374254 -0.049797 0.0344303 -0.0322352 -0.0500326 0.0351392 
-0.0272567 -0.0506804 0.0352606 -0.0595637 -0.0819421 -0.0202796 -0.0616699 -0.0772234 -0.0144443 
-0.0627091 -0.0722435 -0.00826103 -0.0624719 -0.0673782 -0.00209771 -0.0611947 -0.0626062 0.00404938 
-0.0587315 -0.0583659 0.00969791 -0.0554504 -0.0544922 0.0150026 -0.0513554 -0.0514929 0.0193617 
-0.0467878 -0.0490013 0.0231717 -0.0419868 -0.0475442 0.0257682 -0.0370726 -0.0465886 0.0277764 
-0.0325476 -0.0465883 0.0285673 -0.0281784 -0.0469701 0.0288713 -0.0554086 -0.0796431 -0.0194521 
-0.0572823 -0.0751284 -0.014421 -0.0582381 -0.0703647 -0.00910331 -0.058095 -0.0657008 -0.00380506 
-0.0570566 -0.0611181 0.00147738 -0.0549916 -0.0570267 0.00634614 -0.0522187 -0.0532741 0.0109296 
-0.0487282 -0.0503377 0.014731 -0.0448211 -0.0478752 0.0180783 -0.0406815 -0.0463862 0.0204171 
-0.0364292 -0.0453691 0.022267 -0.0324708 -0.0452619 0.0230917 -0.0286301 -0.0455185 0.0235064 
-0.0512827 -0.0774541 -0.0186537 -0.0529261 -0.0731356 -0.0144165 -0.0537985 -0.0685804 -0.00995328 
-0.0537475 -0.0641113 -0.0055088 -0.0529442 -0.0597123 -0.00107963 -0.0512722 -0.0557661 0.00301948 
-0.0490012 -0.0521322 0.00689097 -0.0461084 -0.0492585 0.0101413 -0.0428545 -0.0468262 0.013031 
-0.0393699 -0.0453085 0.0151141 -0.0357734 -0.0442342 0.0168062 -0.0323775 -0.0440255 0.0176627 
-0.0290619 -0.044163 0.018185 -0.0977109 -0.110406 -0.0731983 -0.0991461 -0.108217 -0.0547261 
-0.0971878 -0.106798 -0.0361073 -0.0924831 -0.106384 -0.018283 -0.0855406 -0.106789 -0.00110607 
-0.0766333 -0.108188 0.0142697 -0.0663711 -0.110272 0.0284034 -0.0552228 -0.113297 0.0397662 
-0.0435599 -0.116868 0.0495202 -0.0324953 -0.121274 0.0560299 -0.0217209 -0.126085 0.0609665 
-0.0131277 -0.131464 0.0629587 -0.00540702 -0.13707 0.0637731 -0.0941917 -0.112759 -0.0646032 
-0.0961941 -0.10939 -0.047675 -0.0950678 -0.106656 -0.030375 -0.0912434 -0.104879 -0.0136745 
-0.0852205 -0.103881 0.00253776 -0.0771979 -0.10391 0.0170813 -0.0677961 -0.104645 0.0304741 
-0.0574359 -0.106395 0.0411905 -0.0465191 -0.108735 0.0503528 -0.0360678 -0.111984 0.0563396 
-0.0258422 -0.115673 0.0607868 -0.0175631 -0.119981 0.0623354 -0.0100627 -0.124536 0.0627246 
-0.0900553 -0.113697 -0.0559758 -0.0925568 -0.109401 -0.0406867 -0.0922204 -0.10556 -0.0248304 
-0.0892599 -0.102587 -0.00938182 -0.0841612 -0.100321 0.00573457 -0.0770425 -0.0990859 0.0193341 
-0.0685306 -0.0985618 0.0318877 -0.0589908 -0.0991183 0.0418975 -0.0488543 -0.100302 0.0504304 
-0.0390445 -0.102478 0.0559041 -0.0293932 -0.105134 0.0598945 -0.0214502 -0.10848 0.061074 
-0.0141905 -0.112102 0.061129 -0.0853505 -0.111471 -0.0487253 -0.0880528 -0.106796 -0.0350174 
-0.0882222 -0.102394 -0.0206765 -0.0859229 -0.0987246 -0.00661798 -0.0816121 -0.095653 0.00721057 
-0.0753383 -0.0935625 0.0196859 -0.0677106 -0.0921486 0.0312281 -0.0590327 -0.0918339 0.0404321 
-0.049745 -0.0921575 0.0482785 -0.0406631 -0.0935279 0.0532838 -0.0316809 -0.0954058 0.0569114 
-0.0241776 -0.0980456 0.0579054 -0.0172658 -0.10099 0.057846 -0.0805001 -0.108435 -0.0418278 
-0.0833266 -0.10352 -0.0296861 -0.0839289 -0.0986964 -0.0168793 -0.0822389 -0.0944597 -0.00424615 
-0.078681 -0.0907011 0.00824534 -0.0732369 -0.0878597 0.0195503 -0.0664921 -0.0856509 0.030037 
-0.0586867 -0.0845476 0.0384097 -0.0502654 -0.0840862 0.0455551 -0.0419334 -0.0847205 0.0501032 
-0.0336447 -0.085886 0.0533922 -0.0266076 -0.0878847 0.0542479 -0.0200712 -0.0902167 0.0541303 
-0.0757165 -0.103969 -0.0367157 -0.0784665 -0.0990837 -0.0259662 -0.0792678 -0.0941743 -0.0145912 
-0.0779886 -0.089728 -0.0033352 -0.0750143 -0.0856588 0.00782386 -0.0702859 -0.0824239 0.0179496 
-0.0643478 -0.0797643 0.0273628 -0.057385 -0.0781733 0.0349058 -0.0498271 -0.0772028 0.041363 
-0.0422741 -0.077329 0.0455045 -0.0347234 -0.077987 0.0485232 -0.028223 -0.0795126 0.0493478 
-0.0221428 -0.0813854 0.0492949 -0.070946 -0.0992236 -0.0319519 -0.0735804 -0.0944212 -0.0225606 
-0.0745349 -0.0894914 -0.0125977 -0.0736279 -0.0849051 -0.0027093 -0.071204 -0.0805989 0.00711824 
-0.067169 -0.0770402 0.0160631 -0.062023 -0.073997 0.0243992 -0.0558969 -0.071977 0.0311129 
-0.0492018 -0.0705512 0.0368844 -0.0424333 -0.0702139 0.0406291 -0.0356293 -0.0704043 0.0433909 
-0.0296794 -0.0714896 0.0442054 -0.0240712 -0.072933 0.0442409 -0.0664979 -0.0943257 -0.0287441 
-0.0689353 -0.0897228 -0.0205068 -0.0699134 -0.0849501 -0.0117697 -0.0692426 -0.0804419 -0.00308886 
-0.0672282 -0.0761492 0.00554613 -0.0637629 -0.0725209 0.0134259 -0.059297 -0.0693506 0.0207848 
-0.053922 -0.0671313 0.0267477 -0.0480192 -0.0654641 0.0319001 -0.0419962 -0.0648355 0.0352976 
-0.0359149 -0.0647103 0.0378442 -0.0305284 -0.0654657 0.0386837 -0.0254198 -0.0665734 0.0388403 
-0.0620947 -0.0894065 -0.0257534 -0.0643237 -0.0850194 -0.0186415 -0.0653074 -0.0804285 -0.0111044 
-0.0648539 -0.0760287 -0.00360873 -0.0632292 -0.0717846 0.0038531 -0.0603163 -0.0681221 0.0106839 
-0.056515 -0.0648606 0.0170795 -0.0518792 -0.0624739 0.0223027 -0.0467589 -0.0605953 0.0268451 
-0.0414759 -0.0596994 0.0299024 -0.036114 -0.05928 0.0322397 -0.0312926 -0.0597208 0.0331091 
-0.0266875 -0.0605058 0.0333913 -0.0581278 -0.0849954 -0.0238861 -0.0601441 -0.0808704 -0.0176908 
-0.061083 -0.0765424 -0.0111361 -0.0607672 -0.0723634 -0.00461648 -0.0594291 -0.0683057 0.00187447 
-0.0569544 -0.0647586 0.00783284 -0.0536959 -0.0615635 0.0134239 -0.0496832 -0.0591584 0.0180249 
-0.0452326 -0.057212 0.0220509 -0.0406009 -0.0561698 0.0248157 -0.0358814 -0.0555661 0.026969 
-0.0315873 -0.0557731 0.0278599 -0.0274633 -0.0563044 0.0282458 -0.0541996 -0.0806294 -0.0221186 
-0.056003 -0.0767708 -0.0168213 -0.0568925 -0.0727128 -0.0112297 -0.0567074 -0.0687645 -0.0056676 
-0.0556467 -0.0649055 -0.000129554 -0.0536 -0.0614871 0.00497211 -0.0508734 -0.0583725 0.00977285 
-0.0474735 -0.0559621 0.013762 -0.0436827 -0.0539608 0.0172799 -0.0396944 -0.0527831 0.0197564 
-0.0356103 -0.0520048 0.0217279 -0.0318401 -0.0519852 0.0226396 -0.0281955 -0.052269 0.0231273 
-0.0507585 -0.0785365 -0.021068 -0.05238 -0.0748221 -0.0164719 -0.0532118 -0.0709158 -0.0116303 
-0.0531128 -0.0671049 -0.00681412 -0.0522554 -0.0633717 -0.00201871 -0.0505378 -0.060046 0.0024123 
-0.048227 -0.0570012 0.00659201 -0.045317 -0.0546161 0.0100939 -0.0420591 -0.0526141 0.0132022 
-0.0386026 -0.0513907 0.0154359 -0.0350499 -0.050545 0.0172457 -0.0317344 -0.0504256 0.0181545 
-0.0285138 -0.0505968 0.018703 -0.0473381 -0.0765402 -0.0200479 -0.048779 -0.072965 -0.0161447 
-0.0495527 -0.0692054 -0.012044 -0.049538 -0.0655279 -0.00796472 -0.0488807 -0.0619174 -0.00390298 
-0.047488 -0.0586827 -0.000134715 -0.0455882 -0.0557074 0.00343118 -0.0431628 -0.0533488 0.00645107 
-0.0404323 -0.0513484 0.00915394 -0.0375029 -0.0500832 0.0111469 -0.0344771 -0.0491746 0.0127958 
-0.0316134 -0.0489609 0.0137007 -0.0288145 -0.0490251 0.0143082 -0.0811225 -0.10247 -0.073383 
-0.0823462 -0.101512 -0.0574173 -0.0807372 -0.101109 -0.041369 -0.0767941 -0.101534 -0.0260968 
-0.0709492 -0.102633 -0.0114569 -0.0634868 -0.104629 0.00162255 -0.0549091 -0.107243 0.0136258 
-0.0456569 -0.11076 0.0233762 -0.0360131 -0.114803 0.0318185 -0.0269293 -0.11968 0.0376717 
-0.0181171 -0.124962 0.0422694 -0.0111967 -0.130829 0.0444693 -0.0050331 -0.13693 0.04571 
-0.0790769 -0.104857 -0.0655321 -0.080715 -0.102864 -0.050866 -0.07975 -0.101331 -0.035943 
-0.0765251 -0.100582 -0.0216259 -0.0714587 -0.100474 -0.00780233 -0.0647698 -0.101266 0.00458216 
-0.056962 -0.102678 0.0159743 -0.0484282 -0.105011 0.0251982 -0.0394729 -0.107881 0.0331631 
-0.030959 -0.11159 0.0385981 -0.0226593 -0.115707 0.0428064 -0.0160251 -0.120393 0.0446564 
-0.010057 -0.125308 0.0455631 -0.0764875 -0.106107 -0.0576043 -0.0784923 -0.103261 -0.0443228 
-0.0781407 -0.100752 -0.0306289 -0.0756188 -0.098957 -0.0173709 -0.0713285 -0.0977451 -0.00446803 
-0.0654179 -0.0974182 0.00713279 -0.0583898 -0.0977016 0.0178357 -0.0505826 -0.0989225 0.0264829 
-0.0423232 -0.100688 0.0339365 -0.034381 -0.10331 0.0389529 -0.0265928 -0.106349 0.0427876 
-0.0202452 -0.10997 0.0443343 -0.0144739 -0.113825 0.0449658 -0.0732221 -0.104649 -0.0507581 
-0.0753864 -0.101385 -0.0388194 -0.0754456 -0.0983285 -0.0264074 -0.0734734 -0.0958834 -0.0143121 
-0.0698459 -0.093936 -0.00247464 -0.0646486 -0.0928216 0.00820444 -0.0583685 -0.0922815 0.0180847 
-0.0512862 -0.0926692 0.0260723 -0.0437382 -0.0935954 0.032961 -0.0363986 -0.0953932 0.0375773 
-0.0291602 -0.0976134 0.0410918 -0.0231577 -0.10045 0.0424546 -0.0176496 -0.103532 0.0429566 
-0.0697835 -0.102497 -0.0441893 -0.0720541 -0.0989248 -0.0335826 -0.0724723 -0.0954325 -0.0224662 
-0.0710104 -0.0924383 -0.01156 -0.0680166 -0.0898501 -0.000825075 -0.0635158 -0.0880329 0.00889685 
-0.0579756 -0.0867476 0.0179202 -0.0516178 -0.0863736 0.0252271 -0.0447852 -0.0865289 0.0315372 
-0.0380561 -0.087569 0.0357581 -0.0313774 -0.0890381 0.038966 -0.025735 -0.0911607 0.0401754 
-0.0205072 -0.0935448 0.0405855 -0.0662218 -0.0989569 -0.0391539 -0.0684496 -0.0953151 -0.0297301 
-0.0690496 -0.0916677 -0.019818 -0.0679417 -0.0884197 -0.0100561 -0.0654421 -0.0854972 -0.000416669 
-0.0615362 -0.0832725 0.00834087 -0.0566604 -0.081529 0.0164903 -0.0509857 -0.0806563 0.0231125 
-0.0448472 -0.0802891 0.028848 -0.0387355 -0.0807964 0.0327062 -0.0326368 -0.0817275 0.0356541 
-0.0274042 -0.0833331 0.0367875 -0.022518 -0.0852085 0.0371951 -0.0626361 -0.0951454 -0.0344178 