# vtk DataFile Version 2.0
vtk output
ASCII
DATASET RECTILINEAR_GRID
DIMENSIONS 13 13 13
X_COORDINATES 13 float
5 5.20833 5.41667 5.625 5.83333 6.04167 6.25 6.45833 6.66667 
6.875 7.08333 7.29167 7.5 
Y_COORDINATES 13 float
0 0.208333 0.416667 0.625 0.833333 1.04167 1.25 1.45833 1.66667 
1.875 2.08333 2.29167 2.5 
Z_COORDINATES 13 float
7.5 7.70833 7.91667 8.125 8.33333 8.54167 8.75 8.95833 9.16667 
9.375 9.58333 9.79167 10 
POINT_DATA 2197
VECTORS grad float
-0.0247131 -0.167437 -0.0349275 -0.0307987 -0.179928 -0.0353329 -0.0363461 -0.19493 -0.0351696 
-0.0393144 -0.213158 -0.0337573 -0.0401814 -0.234014 -0.0313274 -0.0337885 -0.257272 -0.0272504 
-0.022389 -0.282187 -0.0220375 0.00103234 -0.305382 -0.0162268 0.0314342 -0.32758 -0.010069 
0.069189 -0.341558 -0.00620196 0.110509 -0.351552 -0.00344559 0.13673 -0.353579 -0.00493667 
0.156912 -0.35242 -0.00812677 -0.0366369 -0.152968 -0.0334068 -0.0452626 -0.165475 -0.0323746 
-0.0536658 -0.180605 -0.0304968 -0.0593555 -0.199724 -0.0270652 -0.0628343 -0.222094 -0.0223675 
-0.057812 -0.248734 -0.0158611 -0.046927 -0.278319 -0.00810744 -0.0217069 -0.308142 -0.000181836 
0.0118371 -0.338104 0.00784363 0.0536882 -0.359178 0.0121772 0.0995669 -0.375943 0.0147207 
0.129537 -0.382174 0.0116952 0.153144 -0.384191 0.00644215 -0.047476 -0.135997 -0.0333255 
-0.0590276 -0.147074 -0.0313996 -0.0710201 -0.160596 -0.0283854 -0.0809625 -0.178239 -0.0233386 
-0.0892344 -0.199238 -0.0166358 -0.0881698 -0.225446 -0.00734419 -0.0806661 -0.255246 0.00373283 
-0.0545291 -0.286623 0.0152642 -0.0175723 -0.318917 0.0270595 0.0319588 -0.341259 0.0330198 
0.0875864 -0.358776 0.0361509 0.126317 -0.362548 0.0307838 0.158289 -0.360821 0.0220173 
-0.0580628 -0.118917 -0.0333249 -0.0724901 -0.128467 -0.0305372 -0.0880184 -0.140254 -0.026424 
-0.102176 -0.156207 -0.0198044 -0.115216 -0.175554 -0.0111424 -0.118127 -0.200895 0.000896538 
-0.114052 -0.230368 0.0152645 -0.0870474 -0.262655 0.030401 -0.0467276 -0.296575 0.0459837 
0.0104992 -0.319761 0.053584 0.0759234 -0.33774 0.057314 0.123435 -0.339244 0.0495808 
0.163781 -0.334158 0.0372622 -0.064781 -0.100167 -0.0345634 -0.0813151 -0.106718 -0.0314014 
-0.0995596 -0.114792 -0.0267644 -0.117354 -0.125796 -0.0192186 -0.134783 -0.139187 -0.00930258 
-0.141945 -0.156987 0.00490237 -0.142028 -0.177828 0.0220653 -0.114906 -0.201135 0.0407952 
-0.0719877 -0.225875 0.0604352 -0.0068226 -0.243382 0.0698804 0.0691286 -0.257382 0.0743825 
0.125734 -0.259554 0.0639083 0.174601 -0.256994 0.0474435 -0.0708421 -0.0814614 -0.0359198 
-0.0892581 -0.0849529 -0.0324434 -0.10993 -0.0892296 -0.0273622 -0.130979 -0.0951299 -0.0190214 
-0.152335 -0.102353 -0.00802438 -0.163319 -0.112258 0.00806116 -0.167152 -0.124013 0.0276561 
-0.140011 -0.137779 0.0495174 -0.0948851 -0.152715 0.0726948 -0.0227677 -0.164233 0.083722 
0.0624365 -0.174094 0.088858 0.127138 -0.177313 0.0759218 0.183639 -0.177874 0.0557567 
-0.0711206 -0.063143 -0.0383145 -0.0894407 -0.0630491 -0.0350504 -0.110002 -0.0627804 -0.0302258 
-0.130932 -0.062215 -0.0222437 -0.15216 -0.0614078 -0.0116888 -0.163186 -0.0602967 0.00376612 
-0.167176 -0.058976 0.0226003 -0.140877 -0.0582638 0.043526 -0.096991 -0.0579049 0.0656663 
-0.0265976 -0.0607012 0.0759621 0.056648 -0.0650274 0.0805152 0.120666 -0.0726296 0.0675723 
0.176993 -0.0815421 0.047631 -0.0705347 -0.0452937 -0.04082 -0.0884652 -0.0417479 -0.0378319 
-0.108542 -0.0371141 -0.0333516 -0.128868 -0.0303843 -0.0258793 -0.149397 -0.0219468 -0.0159692 
-0.159954 -0.0104673 -0.00147997 -0.163634 0.0031103 0.0161672 -0.138341 0.0172915 0.0356263 
-0.0962232 0.0318233 0.0561376 -0.0288 0.0371506 0.0654061 0.0508927 0.038015 0.0692234 
0.112956 0.0265118 0.0565914 0.167967 0.0100615 0.0373796 -0.0647626 -0.030259 -0.0439902 
-0.0805413 -0.0240633 -0.0416606 -0.09789 -0.0161454 -0.0380512 -0.114708 -0.00505948 -0.0319953 
-0.131095 0.00860774 -0.0239459 -0.138123 0.0265703 -0.0124325 -0.138697 0.0474953 0.00147002 
-0.115389 0.0690848 0.0162766 -0.0782122 0.0910603 0.0316081 -0.0212375 0.100921 0.0380724 
0.0453364 0.104909 0.0402373 0.0978156 0.092401 0.0298216 0.144657 0.073295 0.0143735 
-0.058391 -0.0161514 -0.0472 -0.0719051 -0.00761417 -0.0455496 -0.0864108 0.00317875 -0.0428377 
-0.0996656 0.0179872 -0.0382245 -0.111901 0.0360675 -0.0320619 -0.115511 0.0593291 -0.0235068 
-0.113172 0.0861641 -0.0133016 -0.0919796 0.113564 -0.00300479 -0.0598404 0.141292 0.00734521 
-0.0132144 0.154828 0.0111098 0.0404356 0.161483 0.0116814 0.0833495 0.14875 0.00333716 
0.121969 0.12826 -0.00857351 -0.0493556 -0.00616428 -0.0505854 -0.0601025 0.00334347 -0.0497063 
-0.0712577 0.0151936 -0.0480109 -0.0806993 0.0309085 -0.0449573 -0.0887446 0.0497723 -0.0407972 
-0.0894265 0.0730705 -0.0351227 -0.0850303 0.0994269 -0.0284038 -0.0665397 0.125536 -0.0219821 
-0.039865 0.151501 -0.0157329 -0.00314386 0.164895 -0.0142036 0.0384482 0.172194 -0.0149628 
0.0718794 0.162695 -0.021879 0.102046 0.146475 -0.0312581 -0.0402485 0.00270014 -0.0539117 
-0.0483297 0.0128784 -0.0537713 -0.0562955 0.0254122 -0.0530461 -0.0621922 0.0415555 -0.0514603 
-0.066403 0.0606397 -0.0491733 -0.0645013 0.0833611 -0.0461462 -0.0583842 0.108591 -0.0426087 
-0.0424847 0.132902 -0.0396818 -0.020905 0.15668 -0.0371094 0.00678366 0.169723 -0.0376228 
0.0374341 0.177562 -0.0396322 0.0621812 0.171408 -0.0454031 0.0845669 0.159657 -0.0526786 
-0.0308943 0.00768596 -0.0570339 -0.0366596 0.0174986 -0.0575191 -0.0419933 0.0294255 -0.0576047 
-0.0452722 0.0443458 -0.0571691 -0.0468767 0.0617053 -0.0563089 -0.0435801 0.0817313 -0.0551235 
-0.0369034 0.103596 -0.0537137 -0.023214 0.12436 -0.0529679 -0.00545273 0.144485 -0.0526078 
0.0162172 0.156454 -0.0544982 0.0397821 0.16447 -0.0574799 0.0586046 0.162047 -0.0630819 
0.0755301 0.15545 -0.0697321 -0.025087 -0.163452 -0.0440035 -0.0304332 -0.174112 -0.0440573 
-0.0350033 -0.186918 -0.0434536 -0.0368451 -0.20249 -0.0416087 -0.0364637 -0.220316 -0.0387526 
-0.0293079 -0.240169 -0.0346392 -0.0174801 -0.26142 -0.0296587 0.00480594 -0.281261 -0.0253456 
0.0331648 -0.300282 -0.02142 0.0671802 -0.312778 -0.0222588 0.103938 -0.322109 -0.0254076 
0.126196 -0.325017 -0.0356789 0.142653 -0.325355 -0.0487993 -0.0354133 -0.149943 -0.0397179 
-0.0429385 -0.160935 -0.0380574 -0.0499723 -0.1742 -0.0353992 -0.0541584 -0.190884 -0.0310754 
-0.0560244 -0.210352 -0.0253947 -0.0500673 -0.233344 -0.0181308 -0.0387151 -0.258767 -0.00977506 
-0.0150288 -0.284318 -0.00237815 0.0158197 -0.309943 0.00446205 0.0531022 -0.328641 0.0052341 
0.0935042 -0.343979 0.00306398 0.11903 -0.351027 -0.00725763 0.138605 -0.354758 -0.0208399 
-0.0451343 -0.133921 -0.0372841 -0.0551882 -0.143769 -0.0343831 -0.065308 -0.155747 -0.0301537 
-0.0730727 -0.171235 -0.0236098 -0.0789184 -0.189585 -0.0151802 -0.0761745 -0.212164 -0.00415134 
-0.0675068 -0.23766 0.00867014 -0.0431197 -0.264274 0.0209566 -0.009605 -0.291538 0.0329325 
0.0336443 -0.311147 0.0365933 0.0816135 -0.327044 0.0362226 0.114315 -0.33229 0.0246334 
0.140909 -0.333275 0.00855677 -0.0546372 -0.117789 -0.0349673 -0.0671763 -0.126402 -0.0308624 
-0.0803355 -0.136972 -0.0251051 -0.0916441 -0.151076 -0.0163913 -0.101445 -0.168061 -0.00526823 
-0.101922 -0.189861 0.00947612 -0.0959695 -0.214984 0.026718 -0.0709188 -0.242143 0.043878 
-0.0347785 -0.270485 0.0609905 0.01444 -0.290657 0.067533 0.0699995 -0.306868 0.0689506 
0.109881 -0.310431 0.0560375 0.14349 -0.308935 0.0373921 -0.060795 -0.0999768 -0.0344459 
-0.0751539 -0.10595 -0.0296966 -0.0906378 -0.113263 -0.0230772 -0.104959 -0.123079 -0.0129605 
-0.118332 -0.134933 5.79376e-06 -0.122154 -0.150359 0.0177067 -0.119388 -0.168247 0.0386729 
-0.0942425 -0.187993 0.0604602 -0.0561015 -0.208819 0.0827244 -0.000877592 -0.224222 0.0920395 
0.062629 -0.236996 0.0950761 0.109754 -0.240708 0.0799756 0.150325 -0.240794 0.0576202 
-0.066366 -0.0821958 -0.0341146 -0.0823537 -0.0854695 -0.0287996 -0.0999206 -0.0894464 -0.0214226 
-0.116945 -0.0948357 -0.0100717 -0.133526 -0.101376 0.00451704 -0.140369 -0.110133 0.0248234 
-0.140496 -0.120421 0.0490731 -0.115349 -0.132318 0.0749429 -0.0755267 -0.145151 0.101754 
-0.0150531 -0.155547 0.11352 0.0554332 -0.164761 0.117993 0.109023 -0.168904 0.100976 
0.155854 -0.171018 0.0753629 -0.0667733 -0.0646917 -0.0354562 -0.0827106 -0.0647482 -0.0302685 
-0.100232 -0.0646763 -0.0230533 -0.117237 -0.064427 -0.0119519 -0.13382 -0.0640331 0.00231597 
-0.14084 -0.063553 0.0221382 -0.141265 -0.0630134 0.0457909 -0.116944 -0.0632201 0.0709491 
-0.078252 -0.06386 0.0969815 -0.0191791 -0.0671523 0.108377 0.0497756 -0.0717304 0.112677 
0.102982 -0.0787926 0.0961256 0.149889 -0.0868483 0.0712342 -0.0663957 -0.0476138 -0.0370037 
-0.0820308 -0.0445654 -0.0320341 -0.0991916 -0.0405959 -0.0251035 -0.115782 -0.0349557 -0.0144541 
-0.131908 -0.0279543 -0.000774499 -0.138718 -0.0187473 0.0181416 -0.139104 -0.00801919 0.0406692 
-0.115759 0.00270158 0.064479 -0.0786353 0.0134181 0.0890335 -0.0219385 0.0167794 0.0996954 
0.0442481 0.0165744 0.103621 0.09606 0.00692633 0.0878646 0.142122 -0.00649904 0.0642345 
-0.0613091 -0.0330934 -0.0397871 -0.0751318 -0.0276141 -0.0355797 -0.0900343 -0.0206536 -0.0296707 
-0.103845 -0.0111087 -0.0206883 -0.116765 0.000541923 -0.00920151 -0.121041 0.0154101 0.00627727 
-0.119355 0.0324974 0.0245092 -0.0978999 0.0495641 0.0431502 -0.0649661 0.0666189 0.0620289 
-0.0164983 0.0739337 0.0697789 0.0395011 0.0765259 0.0721333 0.0838513 0.066292 0.0591404 
0.123542 0.0509276 0.0400086 -0.055657 -0.0194323 -0.0426985 -0.0675618 -0.0117933 -0.0392929 
-0.0800979 -0.00219865 -0.034455 -0.0910634 0.0107104 -0.027193 -0.100749 0.02632 -0.0179557 
-0.102552 0.0458773 -0.00592886 -0.0989192 0.0681573 0.00802191 -0.0794584 0.090305 0.0216051 
-0.0508071 0.112376 0.034975 -0.0105516 0.122968 0.0398904 0.03533 0.127994 0.0407066 
0.0721628 0.117753 0.0303165 0.105376 0.101405 0.0154437 -0.047492 -0.00959042 -0.0461784 
-0.0570098 -0.000996719 -0.0437511 -0.0666992 0.00964547 -0.0402043 -0.0745313 0.0235161 -0.0349002 
-0.08085 0.0400174 -0.0281642 -0.0804561 0.0599435 -0.019654 -0.0754328 0.0822319 -0.00992033 
-0.05843 0.103838 -0.000901478 -0.0344712 0.125049 0.00770232 -0.00235402 0.135913 0.010126 
0.0337187 0.14176 0.00955314 0.0627869 0.134082 0.00104916 0.0890533 0.120994 -0.0106273 
-0.039228 -0.00080889 -0.0496566 -0.0464358 0.00846718 -0.0481779 -0.0534031 0.0198193 -0.045877 
-0.0583063 0.0342226 -0.0424316 -0.0615276 0.0511118 -0.0380537 -0.0591888 0.0708545 -0.0327989 
-0.0530156 0.0925651 -0.0269393 -0.0383723 0.113152 -0.0220634 -0.0188109 0.133085 -0.0177587 
0.00583016 0.144006 -0.017622 0.032934 0.150556 -0.0195062 0.0548349 0.145549 -0.0264491 
0.0746544 0.135918 -0.0354157 -0.030622 0.00430963 -0.0531291 -0.0357864 0.0133273 -0.0524965 
-0.0404617 0.0242233 -0.0512847 -0.0431423 0.0376769 -0.0493554 -0.0441976 0.0532145 -0.0468416 
-0.0407851 0.0708653 -0.0439393 -0.0342916 0.0899736 -0.0407691 -0.0216679 0.107885 -0.0385803 
-0.00548462 0.125101 -0.0369614 0.0139679 0.135336 -0.038404 0.0350054 0.142186 -0.041331 
0.0518016 0.140218 -0.0478363 0.0669012 0.134721 -0.055773 -0.0252828 -0.157995 -0.0528763 
-0.029829 -0.166666 -0.052551 -0.0333669 -0.177077 -0.0515058 -0.0340859 -0.189716 -0.0492975 
-0.0325079 -0.204172 -0.0461413 -0.0248281 -0.220159 -0.0422127 -0.0129402 -0.237202 -0.0377514 
0.00748946 -0.253053 -0.0352076 0.032879 -0.268211 -0.0337773 0.0619055 -0.278536 -0.0392631 
0.0926954 -0.286518 -0.0481023 0.109935 -0.289506 -0.0664275 0.121755 -0.290497 -0.0885473 
-0.0338481 -0.145542 -0.046075 -0.0401636 -0.15482 -0.0438536 -0.0457114 -0.165971 -0.0405295 
-0.0483201 -0.179863 -0.0355344 -0.048534 -0.195988 -0.0291777 -0.0417913 -0.214735 -0.0216062 
-0.030251 -0.23529 -0.0131967 -0.0087518 -0.255759 -0.00686886 0.0185302 -0.276178 -0.00174968 
0.0500861 -0.291675 -0.00464111 0.0837141 -0.304787 -0.0114165 0.103889 -0.311808 -0.0283109 
0.118684 -0.316391 -0.049253 -0.0422569 -0.130612 -0.0414765 -0.0506355 -0.139036 -0.0377471 
-0.0586766 -0.149221 -0.0325207 -0.0640715 -0.162198 -0.0248664 -0.0673102 -0.177449 -0.0152337 
-0.0629009 -0.195781 -0.00326238 -0.0532171 -0.216238 0.0103218 -0.0311898 -0.237245 0.0222929 
-0.00199521 -0.258573 0.0333273 0.0337344 -0.274656 0.0342614 0.0726325 -0.288195 0.0302983 
0.0982983 -0.294282 0.0134069 0.118671 -0.297388 -0.00865605 -0.0504845 -0.115574 -0.0370268 
-0.0608904 -0.12306 -0.031829 -0.0713861 -0.132171 -0.0247477 -0.0795366 -0.144071 -0.0144897 
-0.0857762 -0.158246 -0.00164329 -0.0836993 -0.175879 0.0146679 -0.0758868 -0.195897 0.0333686 
-0.0533581 -0.217067 0.0509469 -0.0222844 -0.238904 0.0678736 0.017604 -0.25531 0.0726021 
0.0617663 -0.269082 0.0714161 0.0929058 -0.274276 0.0544479 0.118836 -0.276038 0.0311667 
-0.0559345 -0.0988847 -0.0348607 -0.0678187 -0.104135 -0.0288004 -0.0801751 -0.110505 -0.0205889 
-0.0906121 -0.118867 -0.00857929 -0.0994853 -0.128853 0.00652516 -0.0997257 -0.141438 0.0262577 
-0.0940126 -0.155817 0.0491822 -0.0713911 -0.171359 0.0718167 -0.0389515 -0.187578 0.094283 
0.00486766 -0.200299 0.102327 0.0542042 -0.211323 0.103378 0.0905572 -0.216235 0.0851121 
0.121717 -0.2187 0.0591189 -0.0608788 -0.0822159 -0.0329484 -0.0740895 -0.0851734 -0.0261186 
-0.0881184 -0.0887291 -0.0168996 -0.100616 -0.0934365 -0.0033313 -0.111867 -0.0990825 0.0137809 
-0.114219 -0.1064 0.0365538 -0.110435 -0.114869 0.0632305 -0.0878095 -0.124485 0.0903618 
-0.0542434 -0.134768 0.117757 -0.00699954 -0.143642 0.12878 0.0468759 -0.151833 0.131865 
0.0879039 -0.156634 0.112521 0.123793 -0.160078 0.0842061 -0.0613732 -0.0657239 -0.0332696 
-0.0745749 -0.0658945 -0.0264879 -0.0886203 -0.065981 -0.0173411 -0.101195 -0.0660088 -0.00391238 
-0.11257 -0.065989 0.0130053 -0.115226 -0.0660991 0.0354642 -0.111868 -0.0662988 0.0617447 
-0.0900192 -0.0673521 0.0884496 -0.0574333 -0.068901 0.115401 -0.0112182 -0.0725058 0.126442 
0.041605 -0.0771074 0.129768 0.0825687 -0.0833084 0.111286 0.118788 -0.0901491 0.0840817 
-0.0611773 -0.0496102 -0.033882 -0.074167 -0.0470826 -0.0272602 -0.0879797 -0.0438185 -0.0183352 
-0.100338 -0.0393543 -0.00528389 -0.11151 -0.0339121 0.0111295 -0.114218 -0.0271737 0.0328083 
-0.111088 -0.0195413 0.0581183 -0.0901536 -0.0125251 0.0837318 -0.0588812 -0.00586657 0.109521 
-0.0143716 -0.00448893 0.120196 0.0365559 -0.00567174 0.123543 0.0767333 -0.0130942 0.106215 
0.11261 -0.0230126 0.0806182 -0.0568397 -0.0357662 -0.036241 -0.0683994 -0.0310729 -0.0304504 
-0.0804832 -0.0251702 -0.0226451 -0.0908707 -0.0173383 -0.0113982 -0.0998761 -0.00793455 0.0026531 
-0.101126 0.00350106 0.0207542 -0.0970282 0.016338 0.0416484 -0.0778351 0.0284632 0.0621791 
-0.0498769 0.0401752 0.0824988 -0.0111339 0.0448139 0.0905091 0.0328382 0.0460232 0.092551 
0.0678969 0.0384528 0.0781282 0.0993901 0.0273704 0.0571194 -0.0519805 -0.0227022 -0.0388096 
-0.0620142 -0.0160713 -0.0339064 -0.0722694 -0.00782686 -0.0272903 -0.080614 0.00293893 -0.017926 
-0.0874018 0.0157592 -0.00632251 -0.0872069 0.0311606 0.00814798 -0.0821965 0.0483421 0.0245958 
-0.0648206 0.0646835 0.0400934 -0.0402645 0.0805372 0.0550394 -0.00735548 0.0879652 0.0604141 
0.0296034 0.0913081 0.0611481 0.0594144 0.0839528 0.049481 0.0863662 0.0723181 0.0328533 
-0.0448033 -0.0131046 -0.0423091 -0.0528845 -0.00555005 -0.0385436 -0.0608678 0.0037161 -0.0334253 
-0.0668472 0.0154883 -0.0262919 -0.0711937 0.0293025 -0.0175166 -0.0696088 0.0454187 -0.00691222 
-0.0639332 0.0631226 0.00495362 -0.0487123 0.0797125 0.0156389 -0.0279489 0.0956556 0.0256388 
-0.00117421 0.103776 0.0285071 0.028515 0.108104 0.0279176 0.052505 0.102577 0.0183443 
0.0742153 0.0931081 0.00517735 -0.0375004 -0.00449171 -0.045863 -0.0436792 0.00374666 -0.0432105 
-0.0494736 0.0137394 -0.0395486 -0.0532208 0.0261469 -0.0345485 -0.0552998 0.0405218 -0.0284581 
-0.0524756 0.0568741 -0.0214595 -0.0462699 0.0745902 -0.0138345 -0.03312 0.09099 -0.00755316 
-0.015938 0.106625 -0.00205203 0.00513273 0.115226 -0.00150325 0.0280889 0.120415 -0.00335565 
0.0466338 0.116817 -0.011164 0.0634141 0.109703 -0.0213548 -0.0297631 0.000719776 -0.049605 
-0.0342123 0.00881329 -0.0479794 -0.0381054 0.018513 -0.045631 -0.0400799 0.0302732 -0.0424274 
-0.0404911 0.0437123 -0.038527 -0.0369485 0.0586471 -0.0342348 -0.0306794 0.0746134 -0.0296722 
-0.0193103 0.0893078 -0.0263843 -0.00497979 0.103264 -0.0238365 0.0118738 0.111608 -0.0249614 
0.0299507 0.117232 -0.0278672 0.044349 0.115909 -0.0350466 0.0572759 0.111808 -0.0439354 
-0.0250049 -0.149552 -0.0609333 -0.0288284 -0.156317 -0.0603778 -0.0315237 -0.164438 -0.0591438 
-0.0315337 -0.174279 -0.0569825 -0.0293557 -0.185521 -0.0540657 -0.0220042 -0.197855 -0.050893 
-0.0110848 -0.210942 -0.0475438 0.00641124 -0.222993 -0.0467711 0.027726 -0.234443 -0.0474945 
0.0509944 -0.24219 -0.0554968 0.07521 -0.248142 -0.0670284 0.0875775 -0.249984 -0.0877835 
0.0952056 -0.250181 -0.112228 -0.0318247 -0.138316 -0.0525052 -0.0370201 -0.145828 -0.0501153 
-0.0412822 -0.154816 -0.04668 -0.042742 -0.165911 -0.0418315 -0.0419184 -0.178723 -0.0358316 
-0.0352333 -0.193413 -0.0291572 -0.0245058 -0.209398 -0.0220176 -0.00611695 -0.225155 -0.0175679 
0.0167206 -0.240781 -0.0146801 0.0420802 -0.252765 -0.0199325 0.0686624 -0.262985 -0.0291317 
0.0836981 -0.268433 -0.048027 0.0941149 -0.271972 -0.0708008 -0.0387993 -0.124714 -0.0464714 
-0.045605 -0.131621 -0.0425485 -0.051799 -0.139919 -0.0371958 -0.0553546 -0.150351 -0.0297274 
-0.0567603 -0.162522 -0.020535 -0.0517268 -0.176884 -0.00969646 -0.0422527 -0.192756 0.00227737 
-0.0234233 -0.208853 0.0119309 0.00083844 -0.22508 0.0202372 0.0292359 -0.237576 0.0187655 
0.0596385 -0.248263 0.0125529 0.0789603 -0.253433 -0.00556238 0.0938497 -0.256397 -0.0284389 
-0.0456289 -0.11101 -0.0406032 -0.0540168 -0.117238 -0.0351852 -0.0621123 -0.124751 -0.0279605 
-0.0677392 -0.134388 -0.0179257 -0.0713548 -0.145757 -0.00560118 -0.067971 -0.159573 0.00934076 
-0.0597599 -0.175076 0.0260879 -0.0405121 -0.191236 0.0408993 -0.0148556 -0.207776 0.0545868 
0.0165575 -0.220585 0.0568547 0.0507617 -0.231584 0.0535857 0.0743434 -0.236475 0.0361765 
0.0936759 -0.238924 0.0131111 -0.0502347 -0.0957499 -0.0372732 -0.0597739 -0.10015 -0.0309411 
-0.0693039 -0.10544 -0.0225393 -0.0766293 -0.112259 -0.0107608 -0.0821583 -0.120325 0.00376931 
-0.0803912 -0.13026 0.021884 -0.0735922 -0.141485 0.042471 -0.0542657 -0.153466 0.061736 
-0.0276648 -0.165885 0.0802334 0.00642304 -0.17596 0.0856091 0.0441409 -0.184897 0.0846226 
0.0715788 -0.189484 0.0667871 0.0949045 -0.192332 0.0422117 -0.0544198 -0.0805007 -0.0342291 
-0.0649937 -0.0830215 -0.0270751 -0.0758165 -0.0860226 -0.0176168 -0.0846788 -0.0899275 -0.00427692 
-0.0919438 -0.0945689 0.0122257 -0.091662 -0.100457 0.0331752 -0.0861755 -0.107206 0.0571914 
-0.0668457 -0.114795 0.0804409 -0.0394777 -0.122871 0.103245 -0.00306249 -0.130092 0.111442 
0.0377391 -0.136898 0.112557 0.0686529 -0.141279 0.0944397 0.0956114 -0.144691 0.0686301 
-0.0549036 -0.0653492 -0.0337005 -0.0654862 -0.0655402 -0.0265366 -0.076354 -0.0656735 -0.0170818 
-0.0853324 -0.0658163 -0.00378641 -0.0927715 -0.0659666 0.0126384 -0.0928181 -0.0663397 0.0334475 
-0.0877667 -0.0668664 0.0572802 -0.0690981 -0.0681882 0.080387 -0.0425225 -0.0699717 0.103072 
-0.00683752 -0.0732917 0.111569 0.0332641 -0.0773567 0.113185 0.0643079 -0.0823922 0.0960629 
0.0917285 -0.0878159 0.071445 -0.0548014 -0.050524 -0.0335084 -0.0652346 -0.0484524 -0.0264487 
-0.0759571 -0.0458071 -0.0171477 -0.0848391 -0.0423245 -0.0041254 -0.0922215 -0.0381596 0.0119289 
-0.0924328 -0.033265 0.0321779 -0.0876986 -0.0278671 0.05532 -0.0698054 -0.0232437 0.0777175 
-0.0442714 -0.0190699 0.0996828 -0.0097916 -0.0186732 0.108149 0.0290255 -0.0201076 0.110069 
0.0596798 -0.0256928 0.0941499 0.0870688 -0.0329382 0.0710948 -0.0511836 -0.0376571 -0.0353359 
-0.0605182 -0.0337253 -0.0290645 -0.0699534 -0.0288365 -0.0208183 -0.0774636 -0.0225497 -0.00944151 
-0.0834054 -0.0151239 0.00448621 -0.0827979 -0.00644767 0.0216573 -0.0776737 0.00309082 0.0410652 
-0.061242 0.0117293 0.0593545 -0.0382445 0.0198451 0.0769944 -0.00781993 0.022854 0.0834512 
0.0262056 0.0233868 0.0844859 0.0533523 0.0178792 0.0710197 0.0777475 0.00995554 0.0517532 
-0.0471032 -0.0254779 -0.0374248 -0.0552569 -0.0198709 -0.0320052 -0.0633189 -0.0129766 -0.0248916 
-0.0693901 -0.00422226 -0.0152501 -0.0738393 0.00604759 -0.00354876 -0.0724075 0.0179662 0.010463 
-0.0669199 0.031022 0.0260681 -0.0520092 0.0430477 0.0402358 -0.031627 0.0544755 0.0535689 
-0.00534882 0.0597669 0.0579997 0.0237879 0.062083 0.0581142 0.0472838 0.0568856 0.0469854 
0.0685232 0.0486826 0.0313593 -0.0409666 -0.0163551 -0.0406761 -0.0475734 -0.00989485 -0.0363903 
-0.0538803 -0.00205271 -0.0307545 -0.0582141 0.00767286 -0.0232476 -0.0609402 0.018933 -0.0142163 
-0.0586595 0.031698 -0.0037253 -0.0529258 0.0455008 0.00777231 -0.0398011 0.058124 0.0177587 
-0.0223847 0.0700624 0.0268676 -0.00065803 0.0761714 0.0291966 0.0231584 0.0794541 0.0282383 
0.0423657 0.0755998 0.0189329 0.0597293 0.0688907 0.00628845 -0.0346907 -0.00812104 -0.0440292 
-0.0397802 -0.0010112 -0.0408614 -0.0443841 0.00753041 -0.0366733 -0.0470637 0.0179189 -0.0312248 
-0.0481752 0.0298124 -0.0247493 -0.0451344 0.0430304 -0.0175732 -0.0392301 0.0571621 -0.00991398 
-0.0278269 0.0700169 -0.00379562 -0.0132306 0.0821303 0.00142807 0.00422068 0.0888729 0.00178586 
0.0230561 0.0930114 -0.000215591 0.0382053 0.0905797 -0.0079718 0.0518801 0.0855199 -0.0180299 
-0.0279337 -0.00295743 -0.0477345 -0.0316081 0.00409881 -0.0456293 -0.0346891 0.0124818 -0.0427858 
-0.0360017 0.0224683 -0.0391319 -0.0358733 0.0337614 -0.0348177 -0.0323797 0.0460741 -0.0302453 
-0.0265651 0.0590902 -0.0254947 -0.0166606 0.0709126 -0.022162 -0.00438128 0.082042 -0.0196525 
0.00974854 0.0887821 -0.0208148 0.0247755 0.0933939 -0.0237574 0.0366626 0.0926591 -0.0309109 
0.0472937 0.0897855 -0.0397488 -0.0246056 -0.140342 -0.0687812 -0.0277262 -0.145224 -0.0680336 
-0.0296273 -0.151082 -0.0666755 -0.0290345 -0.158158 -0.0646666 -0.0264096 -0.166228 -0.0621274 
-0.019605 -0.174964 -0.059857 -0.00991775 -0.184158 -0.057772 0.00436846 -0.192459 -0.0587708 
0.0213251 -0.20024 -0.0615602 0.0386382 -0.205305 -0.0715329 0.056124 -0.209052 -0.0849883 
0.0636567 -0.209433 -0.106731 0.0672079 -0.208466 -0.131789 -0.0296839 -0.130365 -0.0589541 
-0.0337821 -0.136099 -0.0564963 -0.0368098 -0.142911 -0.053092 -0.0372306 -0.151208 -0.0486 
-0.0355272 -0.160713 -0.0432217 -0.0291159 -0.171394 -0.0377533 -0.0194578 -0.182885 -0.0322228 
-0.00441599 -0.194027 -0.0298587 0.0137521 -0.204966 -0.0293332 0.0327948 -0.213357 -0.0366126 
0.0522617 -0.220513 -0.0476763 0.0622116 -0.223992 -0.0674001 0.0683547 -0.226001 -0.0905881 
-0.0351931 -0.118152 -0.0516722 -0.0404521 -0.123518 -0.0477185 -0.0448583 -0.129904 -0.0424627 
-0.0467105 -0.137783 -0.0355126 -0.0464816 -0.14688 -0.0271819 -0.0410912 -0.157342 -0.0180082 
-0.032141 -0.168746 -0.00825322 -0.0167243 -0.18011 -0.00143059 0.00244742 -0.191452 0.00368937 
0.0235608 -0.200346 -0.000105805 0.0456157 -0.208053 -0.00822351 0.0587707 -0.211856 -0.0265169 
0.0683657 -0.214098 -0.0488806 -0.0405932 -0.105845 -0.0445685 -0.0469925 -0.110779 -0.039154 
-0.0527553 -0.11666 -0.0320887 -0.0560214 -0.124019 -0.0227302 -0.0572532 -0.132582 -0.0115034 
-0.0528823 -0.14267 0.0013165 -0.0446474 -0.15381 0.0152351 -0.0288749 -0.165211 0.0264629 
-0.00872565 -0.176764 0.0361283 0.0144313 -0.186019 0.0357698 0.0390465 -0.194159 0.0305512 
0.055374 -0.198252 0.0136277 0.0683862 -0.200728 -0.00797781 -0.0443197 -0.0920912 -0.040198 
-0.0515471 -0.0956078 -0.0338604 -0.0583279 -0.0997828 -0.0256278 -0.0627397 -0.105036 -0.014625 
-0.065221 -0.111168 -0.00136479 -0.0618499 -0.118503 0.0141963 -0.0544425 -0.126667 0.0313443 
-0.0386085 -0.13525 0.0461585 -0.0178816 -0.144077 0.0596176 0.00690407 -0.151514 0.0619668 
0.0336576 -0.158277 0.0589293 0.0526562 -0.16215 0.0424463 0.0685529 -0.164868 0.0205852 
-0.0477117 -0.0783404 -0.0361372 -0.0556848 -0.0803936 -0.0289643 -0.0633863 -0.0828061 -0.0196776 
-0.0688412 -0.0858776 -0.00719333 -0.0724656 -0.089486 0.0078964 -0.0700256 -0.0939489 0.0259225 
-0.0634033 -0.0990012 0.0459737 -0.0475681 -0.104627 0.0640226 -0.0263832 -0.110587 0.0809091 
-0.000180994 -0.116121 0.0857461 0.0284538 -0.121448 0.0847409 0.049881 -0.125134 0.0687617 
0.068425 -0.128164 0.0467928 -0.0481597 -0.0646136 -0.0348024 -0.0561532 -0.0648012 -0.0275672 
-0.0639199 -0.0649528 -0.0182208 -0.0695165 -0.0651687 -0.00568958 -0.0733451 -0.0654371 0.00943655 
-0.0712328 -0.0659893 0.0274967 -0.0650235 -0.0667372 0.0475803 -0.0497164 -0.0681792 0.0657697 
-0.0291267 -0.0700243 0.0828592 -0.00337491 -0.0729063 0.0882499 0.0248796 -0.0762911 0.0879684 
0.0465992 -0.0800832 0.0730488 0.0657048 -0.0840381 0.0522739 -0.0481288 -0.0511603 -0.0338395 
-0.0560283 -0.0495281 -0.0266533 -0.0637266 -0.0474793 -0.0173911 -0.0693267 -0.0449285 -0.00502121 
-0.0732169 -0.0419686 0.00988083 -0.0713437 -0.0387576 0.0276253 -0.0654958 -0.0353733 0.04733 
-0.0508055 -0.0328063 0.0652246 -0.0309807 -0.030714 0.0820682 -0.00597747 -0.0310409 0.0877551 
0.0215366 -0.0325409 0.0880327 0.0432092 -0.0363882 0.0742855 0.0625451 -0.0411745 0.0549285 
-0.0452233 -0.0393475 -0.0351078 -0.0523426 -0.036171 -0.0286384 -0.0591728 -0.0322849 -0.0203246 
-0.0639456 -0.0275001 -0.00936524 -0.067042 -0.0219831 0.0037497 -0.0648762 -0.0158937 0.0190798 
-0.0590814 -0.00940959 0.0359377 -0.0455392 -0.00388489 0.0509265 -0.0274984 0.00108274 0.06483 
-0.00503175 0.00273004 0.0692683 0.0195807 0.00276745 0.0691174 0.0391693 -0.000831235 0.0572199 
0.0567483 -0.00588439 0.0406237 -0.041918 -0.0281268 -0.0366822 -0.0481894 -0.0235478 -0.0309977 
-0.0540807 -0.0180036 -0.0237151 -0.0579678 -0.011227 -0.0142643 -0.0602217 -0.0034462 -0.00304669 
-0.0577481 0.00516232 0.00976207 -0.0520141 0.0143418 0.0236683 -0.0396662 0.022434 0.0356742 
-0.023478 0.0298951 0.0465767 -0.00364716 0.0333133 0.0497038 0.0179497 0.0347712 0.0490609 
0.0353115 0.0315449 0.038936 0.0509793 0.0264448 0.0250182 -0.0368356 -0.0195378 -0.0396166 
-0.0419582 -0.0141862 -0.0350202 -0.0465964 -0.00778032 -0.029137 -0.0493378 -8.81578e-05 -0.02163 
-0.0505335 0.0086521 -0.0127998 -0.047684 0.0181835 -0.00298836 -0.0420447 0.0282604 0.0074999 
-0.0310967 0.0371862 0.0161808 -0.0170661 0.0454436 0.0238123 -0.000312007 0.0497287 0.0253498 
0.0177625 0.0520877 0.0239325 0.0322629 0.0497835 0.0152377 0.0453337 0.045614 0.00363195 
-0.0316037 -0.0117366 -0.0426981 -0.0355883 -0.00577862 -0.0391838 -0.0389972 0.00128834 -0.0346835 
-0.0406318 0.00965203 -0.0290702 -0.0408205 0.0190723 -0.0225499 -0.0376322 0.0292218 -0.015598 
-0.032115 0.0398741 -0.00834847 -0.0225232 0.0493486 -0.00279522 -0.0105655 0.0581391 0.00177312 
0.00325359 0.0631425 0.0017853 0.0179752 0.0663098 -0.000411576 0.0297186 0.0649824 -0.00788036 
0.0402707 0.0618571 -0.0174579 -0.0258555 -0.00665702 -0.046288 -0.0287398 -0.000667086 -0.0438348 
-0.031001 0.0063684 -0.0406606 -0.031663 0.0145606 -0.0367678 -0.031022 0.0236954 -0.0322892 
-0.027623 0.0334103 -0.0277212 -0.0223221 0.0435252 -0.0230915 -0.0139361 0.0525641 -0.0199842 
-0.00375874 0.0609783 -0.017761 0.00761527 0.0661874 -0.0190517 0.0195695 0.0698424 -0.022046 
0.0289162 0.0696805 -0.0289942 0.03722 0.0679918 -0.037524 -0.0240405 -0.129711 -0.075457 
-0.0266797 -0.133124 -0.0746794 -0.0281235 -0.137227 -0.0733993 -0.0273735 -0.142196 -0.0717255 
-0.024836 -0.147871 -0.069731 -0.0189924 -0.153957 -0.0683081 -0.0108688 -0.160326 -0.0672792 
0.000471839 -0.165933 -0.0692656 0.0136805 -0.171096 -0.0730027 0.0264854 -0.174152 -0.0829359 
0.0390944 -0.176185 -0.0958732 0.043613 -0.175452 -0.115381 0.0448953 -0.173612 -0.137517 
-0.0277183 -0.121046 -0.0650069 -0.0310406 -0.12532 -0.0627514 -0.0332865 -0.130371 -0.0597106 
-0.033243 -0.136474 -0.0559185 -0.0313342 -0.143436 -0.0515141 -0.0257112 -0.151157 -0.0474059 
-0.0175268 -0.159402 -0.043502 -0.00553169 -0.167269 -0.0426924 0.00867624 -0.174917 -0.0436797 
0.022924 -0.180621 -0.0513492 0.0371911 -0.185383 -0.0622585 0.0437631 -0.187195 -0.0801207 
0.047257 -0.187827 -0.100764 -0.0319759 -0.110276 -0.05712 -0.0361295 -0.114351 -0.05353 
-0.0393626 -0.119165 -0.048855 -0.0403174 -0.125037 -0.0429455 -0.0394157 -0.131771 -0.0360301 
-0.0344493 -0.1394 -0.0288568 -0.0266796 -0.147644 -0.0215057 -0.0143431 -0.155747 -0.0171033 
0.000645285 -0.163766 -0.0144132 0.0164476 -0.16999 -0.0191764 0.0326446 -0.175343 -0.0275534 
0.0417104 -0.177703 -0.0439846 0.0479238 -0.178867 -0.0636375 -0.0361529 -0.0994182 -0.0494118 
-0.0411233 -0.10324 -0.0445174 -0.0453279 -0.107751 -0.038244 -0.0472688 -0.11331 -0.0302595 
-0.0473652 -0.119721 -0.0208809 -0.0430557 -0.127141 -0.0106931 -0.0357076 -0.135255 5.27224e-05 
-0.0230465 -0.143459 0.00800051 -0.00730021 -0.151713 0.0143236 0.0100313 -0.15835 0.012426 
0.0281314 -0.164202 0.00654261 0.0396611 -0.167072 -0.00850088 0.0485625 -0.16875 -0.0272085 
-0.0390939 -0.0872207 -0.0444446 -0.0446587 -0.089955 -0.0387072 -0.0495931 -0.093168 -0.0313846 
-0.0523343 -0.097153 -0.0219754 -0.0532885 -0.101767 -0.010866 -0.0496418 -0.107198 0.00156143 
-0.042822 -0.113192 0.0148979 -0.030094 -0.119434 0.025664 -0.0139353 -0.125818 0.0349377 
0.00453671 -0.131233 0.0352835 0.0241303 -0.136177 0.0313005 0.0376633 -0.13897 0.0169817 
0.048772 -0.140902 -0.00147158 -0.0417712 -0.0750183 -0.0397869 -0.047871 -0.0766245 -0.0332834 
-0.0534668 -0.0784909 -0.025009 -0.0569397 -0.0808403 -0.0143102 -0.0586831 -0.0835834 -0.00163601 
-0.0556598 -0.0869362 0.0128161 -0.0493493 -0.0907097 0.0284945 -0.036602 -0.0948872 0.0418195 
-0.0201171 -0.0992993 0.0537779 -0.000648795 -0.103425 0.0562018 0.020266 -0.107411 0.0540028 
0.0356332 -0.110132 0.0404345 0.0487813 -0.112346 0.0223186 -0.0421274 -0.0627739 -0.0378526 
-0.0482407 -0.0628979 -0.0312589 -0.0538951 -0.06299 -0.0228896 -0.0574963 -0.0631547 -0.0120908 
-0.0594246 -0.0633786 0.000687741 -0.0566793 -0.0638654 0.0152727 -0.0507108 -0.0645337 0.0311036 
-0.0383628 -0.0657528 0.0447037 -0.0223103 -0.0672918 0.0570084 -0.00311436 -0.0695327 0.0600559 