# vtk DataFile Version 2.0
vtk output
ASCII
DATASET RECTILINEAR_GRID
DIMENSIONS 13 13 13
X_COORDINATES 13 float
-5 -4.79167 -4.58333 -4.375 -4.16667 -3.95833 -3.75 -3.54167 -3.33333 
-3.125 -2.91667 -2.70833 -2.5 
Y_COORDINATES 13 float
5 5.20833 5.41667 5.625 5.83333 6.04167 6.25 6.45833 6.66667 
6.875 7.08333 7.29167 7.5 
Z_COORDINATES 13 float
5 5.20833 5.41667 5.625 5.83333 6.04167 6.25 6.45833 6.66667 
6.875 7.08333 7.29167 7.5 
POINT_DATA 2197
VECTORS grad float
0.0413493 -0.0517999 -0.00104292 0.0361215 -0.0590808 -0.00382493 0.02858 -0.064958 -0.00630605 
0.0189916 -0.0695933 -0.008521 0.00787182 -0.0707301 -0.00992965 -0.00439655 -0.0692431 -0.0107336 
-0.0159472 -0.0632192 -0.0106354 -0.0270434 -0.0543219 -0.00996599 -0.0348063 -0.0419129 -0.00894515 
-0.0407984 -0.0276382 -0.00773763 -0.0415261 -0.012097 -0.00683303 -0.0399314 0.00400296 -0.00606206 
-0.0326633 0.0180296 -0.00571515 0.0352443 -0.0474843 0.00447327 0.0307313 -0.0532714 0.00251512 
0.0246188 -0.0577226 0.000822232 0.0170916 -0.0609922 -0.000635997 0.00859057 -0.061425 -0.00155362 
-0.000640679 -0.0597303 -0.0020658 -0.00924944 -0.0544663 -0.00201245 -0.0174639 -0.0469417 -0.00160093 
-0.0231509 -0.0365682 -0.000960851 -0.027495 -0.0246812 -0.000199344 -0.0278967 -0.0117901 0.000374804 
-0.026559 0.0015439 0.000866293 -0.0211163 0.0131211 0.0010291 0.0304551 -0.0427776 0.00921963 
0.0267018 -0.0473562 0.00780924 0.0218584 -0.0507265 0.0066348 0.0160506 -0.0530279 0.00566908 
0.00963221 -0.0530521 0.00508946 0.00275595 -0.0513684 0.0047994 -0.00358709 -0.0469104 0.00488218 
-0.00959242 -0.0406954 0.00520108 -0.0136949 -0.0322604 0.00565679 -0.0167865 -0.022646 0.00618518 
-0.0169724 -0.0122843 0.00655345 -0.0158764 -0.00159282 0.00685109 -0.0118114 0.00770632 0.00683961 
0.0265107 -0.0384506 0.0132826 0.0234834 -0.0421398 0.012251 0.0197404 -0.0447477 0.0114398 
0.0153644 -0.0463991 0.0108235 0.0106267 -0.0462207 0.010494 0.00561778 -0.0446699 0.0103797 
0.00105154 -0.0409674 0.0105111 -0.00323431 -0.0359022 0.0107982 -0.00611143 -0.029121 0.0111534 
-0.00824016 -0.0214281 0.0115448 -0.0082628 -0.0131794 0.0117781 -0.00735627 -0.00468533 0.0119417 
-0.00433004 0.00273208 0.0117921 0.0232548 -0.034433 0.0167887 0.0209257 -0.0374929 0.0159983 
0.0181459 -0.039598 0.0154238 0.0149673 -0.0408586 0.0150403 0.0115828 -0.0406454 0.0148894 
0.00804383 -0.0393269 0.014913 0.00485604 -0.0363387 0.0151088 0.00189065 -0.032293 0.0154135 
-5.37042e-05 -0.0269336 0.0157366 -0.00145563 -0.0208762 0.0160693 -0.00135774 -0.0144011 0.0162255 
-0.000598148 -0.00774181 0.0163037 0.00166551 -0.00188316 0.0160456 0.0203835 -0.0311292 0.0197157 
0.0187148 -0.0337772 0.0190665 0.0167736 -0.0355777 0.018639 0.0145915 -0.0366285 0.0184075 
0.0122963 -0.0364796 0.0183804 0.00991642 -0.0354311 0.0185065 0.00780009 -0.0330747 0.0187607 
0.00585071 -0.02989 0.0190962 0.00462165 -0.0256912 0.0194158 0.00377525 -0.0209536 0.0197271 
0.00397475 -0.0158938 0.0198421 0.00463567 -0.0106919 0.0198704 0.00634757 -0.00607834 0.0195369 
0.0177775 -0.0283177 0.0222433 0.016743 -0.0307037 0.0216665 0.0155547 -0.0323362 0.021324 
0.0142304 -0.033302 0.0211889 0.0128427 -0.0332859 0.0212476 0.0114073 -0.0325333 0.0214518 
0.0101507 -0.0307519 0.0217606 0.00900743 -0.0283188 0.0221357 0.00834367 -0.0251005 0.0224718 
0.00793468 -0.0214651 0.0227871 0.00822272 -0.0175734 0.0228857 0.00881827 -0.0135687 0.0228887 
0.0101238 -0.00998386 0.0225026 0.0152999 -0.0263569 0.0242481 0.0148655 -0.0285818 0.0236815 
0.0143408 -0.0301338 0.0233673 0.0137363 -0.0310905 0.0232763 0.0130843 -0.0312323 0.0233804 
0.0123966 -0.0307631 0.0236309 0.0118104 -0.0294714 0.0239764 0.0112885 -0.0276588 0.0243822 
0.0110615 -0.025227 0.0247359 0.0109912 -0.0224663 0.0250619 0.0113606 -0.0194947 0.0251564 
0.0119241 -0.0164299 0.0251486 0.0129484 -0.0136628 0.0247298 0.0128969 -0.0248902 0.0259494 
0.0130427 -0.0270124 0.0253569 0.0131298 -0.0285347 0.0250378 0.0131649 -0.0295263 0.0249607 
0.0131489 -0.0298408 0.0250867 0.0130947 -0.0296476 0.025365 0.0130689 -0.0287961 0.025737 
0.0130612 -0.0275279 0.0261682 0.0131963 -0.02577 0.0265402 0.0134072 -0.0237519 0.0268808 
0.013854 -0.0215563 0.0269781 0.0144048 -0.0192822 0.026968 0.0152204 -0.0172101 0.0265283 
0.010582 -0.0242955 0.0271511 0.0112523 -0.0263278 0.026494 0.0118676 -0.0278305 0.0261325 
0.0124342 -0.0288647 0.0260324 0.0129317 -0.0293324 0.0261474 0.0133773 -0.0293752 0.0264238 
0.0137882 -0.0288842 0.026798 0.014177 -0.028055 0.0272341 0.0145936 -0.0268315 0.0276102 
0.015025 -0.0253985 0.0279544 0.0155443 -0.0238126 0.0280501 0.0161022 -0.0221592 0.0280363 
0.0167833 -0.0206408 0.0275827 0.00830993 -0.0241235 0.0281104 0.00947753 -0.0260721 0.0273702 
0.0105805 -0.0275602 0.0269479 0.0116263 -0.0286408 0.0268069 0.0125778 -0.0292522 0.0268951 
0.0134586 -0.0295118 0.027155 0.014246 -0.0293423 0.0275198 0.0149742 -0.0289011 0.0279509 
0.0156333 -0.0281444 0.0283241 0.0162558 -0.02722 0.0286665 0.0168451 -0.0261633 0.0287586 
0.0174198 -0.0250481 0.0287403 0.0180023 -0.0240149 0.0282763 0.0062119 -0.024734 0.0285822 
0.00778952 -0.0265683 0.0277398 0.00928612 -0.0280121 0.0272348 0.0107111 -0.0291106 0.0270284 
0.0120152 -0.0298236 0.0270641 0.0132288 -0.0302474 0.0272813 0.0143017 -0.0303256 0.0276114 
0.0152857 -0.0301848 0.0280129 0.0161304 -0.0297897 0.0283619 0.0169011 -0.0292594 0.0286829 
0.0175539 -0.0286144 0.0287576 0.0181548 -0.0279188 0.0287236 0.0186824 -0.0272698 0.0282473 
0.00418351 -0.0256576 0.0288589 0.00613621 -0.0273651 0.0279067 0.00798883 -0.028753 0.0273103 
0.00975292 -0.029858 0.0270286 0.0113691 -0.0306557 0.0270016 0.0128745 -0.0312227 0.0271655 
0.0141967 -0.0315189 0.0274508 0.015403 -0.0316435 0.0278131 0.0164104 -0.0315679 0.0281293 
0.0173121 -0.0313858 0.028421 0.0180258 -0.0311056 0.0284727 0.0186567 -0.0307821 0.0284185 
0.0191469 -0.030477 0.0279292 0.0383817 -0.0453176 -0.00558223 0.0333273 -0.0514872 -0.00866524 
0.0262083 -0.0562936 -0.0112621 0.0172629 -0.0598943 -0.013429 0.00694514 -0.0604003 -0.0145082 
-0.00440196 -0.0585853 -0.0147715 -0.0151731 -0.0527661 -0.0137858 -0.0255795 -0.044411 -0.012009 
-0.0330175 -0.0327498 -0.00954335 -0.0388784 -0.0193321 -0.00671173 -0.0397597 -0.00449019 -0.00400732 
-0.0384441 0.0109801 -0.00135904 -0.0314986 0.0245726 0.000626973 0.0330835 -0.0418474 0.000549253 
0.02878 -0.0468471 -0.00164518 0.0230216 -0.0505534 -0.0034092 0.015976 -0.0531157 -0.0047925 
0.00803426 -0.0531046 -0.00540102 -0.000579714 -0.0511637 -0.00542845 -0.00867118 -0.0459934 -0.00461714 
-0.0164317 -0.0387779 -0.00327464 -0.0219003 -0.0288719 -0.00146117 -0.0261512 -0.0175367 0.000602485 
-0.0266653 -0.00513404 0.00257388 -0.0255307 0.0077395 0.00450457 -0.0203653 0.0189562 0.00590699 
0.0288333 -0.0379383 0.00584252 0.0253069 -0.0419737 0.0042445 0.0207716 -0.0448313 0.00303229 
0.0153438 -0.0466469 0.00216135 0.0093377 -0.0463547 0.00187229 0.00289797 -0.0444816 0.00201965 
-0.00308908 -0.0400532 0.00275523 -0.00878944 -0.0340065 0.00386336 -0.0127559 -0.0258572 0.00528562 
-0.0158013 -0.0165909 0.00687476 -0.0161003 -0.00656246 0.00835742 -0.0151878 0.00380226 0.0097931 
-0.0113883 0.0128177 0.0107597 0.0252577 -0.0343144 0.0103702 0.0224745 -0.037643 0.00918622 
0.019013 -0.0399084 0.00836115 0.0149515 -0.0412333 0.00785356 0.0105297 -0.0408319 0.0077999 
0.00583747 -0.039136 0.00808668 0.00151769 -0.0354245 0.00879231 -0.00256623 -0.0304366 0.00976323 
-0.00536963 -0.0238176 0.0109344 -0.00749276 -0.0163321 0.0122119 -0.00763973 -0.0083025 0.0133592 
-0.00691486 -3.27719e-05 0.014449 -0.00415562 0.00716836 0.0150954 0.0222316 -0.0309229 0.014274 
0.020164 -0.0337545 0.0133555 0.0176548 -0.0356368 0.0127834 0.0147549 -0.0366794 0.0125178 
0.0116308 -0.0363092 0.012631 0.00833844 -0.0348794 0.0130284 0.00532974 -0.0318645 0.0137414 
0.00250069 -0.0278455 0.0146542 0.000584128 -0.0225725 0.0156884 -0.000847683 -0.0166331 0.016787 
-0.000893774 -0.0102965 0.0177239 -0.000328515 -0.00378451 0.0185895 0.00165578 0.00191766 0.0190098 
0.0194889 -0.0281718 0.0175243 0.0181024 -0.0306884 0.016765 0.0164328 -0.0323534 0.016352 
0.0145127 -0.0332652 0.0162453 0.0124471 -0.0330098 0.0164748 0.0102724 -0.0318791 0.0169563 
0.00829334 -0.0294906 0.0176893 0.00643825 -0.0263055 0.0185817 0.00520497 -0.022147 0.0195423 
0.00430203 -0.0174714 0.0205391 0.0043392 -0.0124957 0.0213466 0.00479114 -0.0073875 0.0220708 
0.00620865 -0.00288475 0.0223379 0.0169417 -0.0258623 0.0203238 0.0162124 -0.0281894 0.0196504 
0.0153047 -0.0297515 0.0193318 0.014239 -0.030637 0.019327 0.0130671 -0.0305541 0.0196377 
0.0118153 -0.029745 0.020185 0.0106718 -0.0279347 0.0209469 0.00959696 -0.0254903 0.0218447 
0.00890659 -0.0222869 0.0227753 0.00842047 -0.0186803 0.0237234 0.00852877 -0.0148364 0.0244576 
0.00889931 -0.0108879 0.0250974 0.00989359 -0.00737801 0.0252615 0.014461 -0.0243565 0.0225401 
0.0143565 -0.0265752 0.0218883 0.0141269 -0.0281051 0.0216056 0.0137867 -0.0290258 0.0216494 
0.0133481 -0.0291337 0.022003 0.0128357 -0.028632 0.0225889 0.012351 -0.0273213 0.0233709 
0.0118839 -0.0254981 0.0242771 0.0116169 -0.0230717 0.0251955 0.0114562 -0.0203247 0.0261203 
0.0116331 -0.0173814 0.0268135 0.0119591 -0.0143515 0.0274046 0.0126581 -0.0116357 0.0275031 
0.012019 -0.0233174 0.0244179 0.0125204 -0.0254747 0.0237501 0.0129203 -0.0270135 0.0234693 
0.0132306 -0.0280053 0.0235309 0.0134324 -0.0283145 0.0239052 0.0135528 -0.0281119 0.0245139 
0.0136242 -0.0272551 0.025311 0.0136646 -0.0259839 0.0262274 0.0137516 -0.024231 0.0271436 
0.0138632 -0.0222221 0.0280599 0.0141074 -0.020045 0.0287311 0.0144101 -0.0177938 0.0292941 
0.0148881 -0.0157567 0.0293487 0.00962721 -0.0231187 0.0257517 0.010678 -0.0252147 0.0250275 
0.011625 -0.0267621 0.0247091 0.0124804 -0.0278242 0.0247496 0.013204 -0.0283109 0.0251107 
0.0138287 -0.028366 0.025712 0.0143379 -0.027886 0.0265013 0.0147738 -0.027067 0.0274095 
0.0151397 -0.0258563 0.0283131 0.0154683 -0.0244376 0.0292142 0.0157802 -0.0228704 0.0298639 
0.0160848 -0.0212378 0.0304026 0.0164217 -0.0197467 0.0304247 0.00725971 -0.0233275 0.0268218 
0.00883246 -0.0253623 0.0260215 0.0102867 -0.0269181 0.0256463 0.011636 -0.0280502 0.025647 
0.0128239 -0.0287027 0.0259784 0.0138908 -0.0289956 0.0265577 0.0147802 -0.0288549 0.0273281 
0.0155574 -0.0284397 0.0282194 0.0161658 -0.0277077 0.029105 0.0166846 -0.0268073 0.0299877 
0.0170644 -0.0257742 0.0306162 0.0173831 -0.0246826 0.0311325 0.0176175 -0.0236731 0.0311276 
0.00504843 -0.0242915 0.0273753 0.00705221 -0.0262238 0.0264769 0.00891684 -0.0277498 0.0260197 
0.0106584 -0.0289164 0.0259526 0.0122086 -0.0296878 0.0262251 0.0136154 -0.0301628 0.0267524 
0.0147956 -0.0302869 0.0274749 0.0158323 -0.0301886 0.0283209 0.0166292 -0.0298324 0.0291635 
0.0172988 -0.0293391 0.0300044 0.017745 -0.0287267 0.0305943 0.0180927 -0.0280619 0.0310734 
0.0182755 -0.0274374 0.0310373 0.00289965 -0.0255577 0.027722 0.00529806 -0.027371 0.0267169 
0.00753445 -0.0288519 0.0261676 0.00962752 -0.0300388 0.0260214 0.0114993 -0.0309102 0.0262235 
0.013205 -0.0315451 0.0266868 0.0146401 -0.031904 0.0273497 0.0159037 -0.0320879 0.028139 
0.0168676 -0.0320664 0.0289286 0.0176723 -0.0319357 0.0297183 0.0181842 -0.0316987 0.0302627 
0.0185669 -0.0314148 0.0306989 0.0187184 -0.0311368 0.0306298 0.0351081 -0.0382421 -0.00871416 
0.0303743 -0.0432624 -0.0117785 0.02386 -0.0469891 -0.0141974 0.0157707 -0.0495715 -0.0160455 
0.0064968 -0.0494983 -0.0166218 -0.00366545 -0.0474335 -0.0162441 -0.0133811 -0.0419562 -0.0143883 
-0.0228138 -0.0343176 -0.0115963 -0.0296815 -0.023705 -0.00782802 -0.0351864 -0.0115124 -0.00354116 
-0.0361513 0.00210769 0.000824482 -0.0351131 0.0163576 0.00522488 -0.0287602 0.0289318 0.00875813 
0.0306556 -0.0356533 -0.00235199 0.0266982 -0.0398251 -0.00455929 0.0214555 -0.0427659 -0.00619219 
0.0150757 -0.0446176 -0.00731699 0.00789633 -0.0441973 -0.00749247 0.00011721 -0.0420731 -0.00695597 
-0.00724142 -0.0371206 -0.00537792 -0.0143337 -0.0303768 -0.00314022 -0.0194162 -0.0211944 -0.000225762 
-0.023431 -0.0107163 0.00304822 -0.0240331 0.000802193 0.00633028 -0.0231296 0.0127797 0.0096159 
-0.0184403 0.0232306 0.012183 0.0269767 -0.0326029 0.00320457 0.023808 -0.036062 0.0015846 
0.019727 -0.0383881 0.000484244 0.014839 -0.0397121 -0.000156473 0.00941481 -0.0391296 -5.77341e-05 
0.00358856 -0.0371171 0.000595596 -0.00187468 -0.032818 0.00200793 -0.00710801 -0.0270706 0.00390097 
-0.0108199 -0.0194026 0.0062588 -0.0137236 -0.0107144 0.00886353 -0.0141298 -0.00130064 0.0114114 
-0.0134342 0.00843316 0.0139341 -0.0100485 0.016892 0.0158261 0.0237924 -0.0297466 0.00797992 
0.021381 -0.0326885 0.00677083 0.018336 -0.0345958 0.00604723 0.0147305 -0.035588 0.00575311 
0.0107686 -0.0349831 0.00605621 0.00653946 -0.0331805 0.00680722 0.00259917 -0.029537 0.00812281 
-0.00115815 -0.0247274 0.00979594 -0.00380271 -0.0184154 0.0117822 -0.0058561 -0.0113052 0.0139349 
-0.00613168 -0.00368985 0.0159764 -0.00562293 0.00414836 0.0179689 -0.00324395 0.0109536 0.019379 
0.0210112 -0.0270487 0.0121187 0.0193314 -0.0296326 0.0111767 0.0172199 -0.0312805 0.010703 
0.0147265 -0.0321004 0.0106434 0.0119882 -0.0315873 0.0110939 0.00906628 -0.0300746 0.011927 
0.00634549 -0.0270883 0.0132021 0.00375211 -0.0231689 0.0147569 0.0019279 -0.0180836 0.0165225 
0.000512306 -0.012379 0.0184 0.000314194 -0.0063124 0.0201209 0.000653207 -8.61243e-05 0.0217727 
0.00226743 0.00534114 0.0228583 0.018409 -0.0249114 0.0155675 0.0174296 -0.0272817 0.0147883 
0.0161528 -0.0288023 0.014474 0.0146128 -0.0295713 0.014571 0.0128891 -0.0292194 0.0151267 
0.0110278 -0.0280266 0.0160265 0.00927838 -0.0256454 0.0172912 0.00759993 -0.0225114 0.0187868 
0.00641361 -0.0184633 0.0204251 0.00548874 -0.0139296 0.0221393 0.00535345 -0.00912584 0.0236614 
0.0055665 -0.00420293 0.0250988 0.0066133 0.000111238 0.0259694 0.0159303 -0.0231609 0.0185404 
0.0156298 -0.0254169 0.0178521 0.0151193 -0.0269014 0.017635 0.0144233 -0.0277032 0.0178346 
0.0135702 -0.0275602 0.0184664 0.0125994 -0.0267084 0.0194224 0.0116503 -0.024896 0.0206974 
0.0107151 -0.0224753 0.0221745 0.0100408 -0.0193336 0.0237501 0.00950521 -0.0158091 0.025378 
0.00942264 -0.0120709 0.0267853 0.00953994 -0.00823859 0.0280953 0.0101554 -0.00485486 0.0288267 
0.0134573 -0.0221576 0.0208903 0.0138035 -0.0243597 0.0202293 0.0139817 -0.0258615 0.020052 
0.0140113 -0.0267437 0.0203025 0.0138828 -0.0268222 0.0209754 0.0136356 -0.0262981 0.0219652 
0.0133263 -0.0249873 0.0232499 0.0129777 -0.0231783 0.0247214 0.012708 -0.0207898 0.0262655 
0.0124802 -0.0180934 0.0278481 0.0124528 -0.015218 0.0291903 0.0125139 -0.0122636 0.0304265 
0.0128252 -0.00963448 0.0310706 0.0109876 -0.0215882 0.0228785 0.0119619 -0.0237715 0.0222078 
0.0127835 -0.0253216 0.0220369 0.0134701 -0.0263116 0.0223083 0.0139813 -0.0266192 0.0230021 
0.0143609 -0.0264149 0.0240127 0.0145982 -0.0255667 0.0253067 0.0147454 -0.0243107 0.0267802 
0.0148177 -0.0225861 0.0283109 0.0148504 -0.0206127 0.0298719 0.0148797 -0.0184823 0.0311779 
0.0149076 -0.0162825 0.0323713 0.0149886 -0.0143058 0.0329584 0.00852951 -0.021818 0.0242896 
0.0100741 -0.0239701 0.0235674 0.0114578 -0.0255582 0.0233621 0.0126992 -0.0266476 0.0236138 
0.0137365 -0.0271574 0.024293 0.0146208 -0.0272323 0.0252929 0.0152931 -0.0267758 0.0265728 
0.0158312 -0.0259826 0.02803 0.0161772 -0.0248044 0.0295373 0.0164212 -0.0234216 0.0310712 
0.0165132 -0.0218961 0.0323429 0.0165381 -0.0203077 0.0334989 0.0164736 -0.0188647 0.0340418 
0.00607711 -0.0224354 0.0254208 0.00816401 -0.0245502 0.0246271 0.0100703 -0.0261714 0.0243672 
0.0118169 -0.0273561 0.0245796 0.0133253 -0.0280549 0.0252272 0.014655 -0.0283894 0.0262011 
0.0157082 -0.0282901 0.0274555 0.0165863 -0.0279161 0.0288874 0.0171729 -0.0272272 0.0303665 
0.0176045 -0.026371 0.0318706 0.0177621 -0.0253825 0.033109 0.0177987 -0.0243358 0.0342302 
0.0176296 -0.0233689 0.0347352 0.00375996 -0.023773 0.0260125 0.00629473 -0.0257991 0.0251224 
0.00862439 -0.0274068 0.0247794 0.0107726 -0.0286444 0.0249203 0.0126495 -0.0294814 0.0255022 
0.0143228 -0.0300178 0.0264148 0.0156688 -0.0302021 0.0276085 0.0168074 -0.0301633 0.0289803 
0.0175837 -0.0298658 0.0303989 0.0181675 -0.0294309 0.0318423 0.0183942 -0.0288731 0.0330229 
0.0184633 -0.0282611 0.0340876 0.0182479 -0.0276806 0.0345446 0.0014969 -0.0253988 0.0263885 
0.00444177 -0.0273155 0.025392 0.00715507 -0.028891 0.0249543 0.00966354 -0.0301648 0.025011 
0.0118678 -0.0311195 0.0255136 0.013844 -0.0318349 0.0263506 0.0154475 -0.0322731 0.0274697 
0.0168149 -0.0325358 0.0287673 0.0177606 -0.0325906 0.0301125 0.0184824 -0.032535 0.031483 
0.0187796 -0.0323653 0.0325961 0.0188896 -0.0321453 0.0335956 0.0186512 -0.0319153 0.0340005 
0.0321037 -0.0314199 -0.0106447 0.0278239 -0.035452 -0.0134547 0.0220317 -0.0382724 -0.0155041 
0.0149016 -0.0400209 -0.0168809 0.00676573 -0.0395077 -0.0168909 -0.00212443 -0.0372982 -0.0158758 
-0.0106715 -0.0322221 -0.0132708 -0.0190013 -0.0253305 -0.00965876 -0.0251539 -0.0158609 -0.00489712 
-0.0301498 -0.00502187 0.00047523 -0.0311457 0.00709983 0.00606 -0.030377 0.0197874 0.0117385 
-0.0248426 0.0309737 0.0163866 0.0283926 -0.0295787 -0.00437264 0.0249004 -0.0330215 -0.00640536 
0.0202881 -0.0353019 -0.00775477 0.014685 -0.036554 -0.00849971 0.00837605 -0.0358161 -0.00818528 
0.00153785 -0.0335858 -0.00707634 -0.00497633 -0.0289158 -0.00480468 -0.0112853 -0.0227007 -0.00179664 
-0.0158813 -0.0143469 0.00201906 -0.0195674 -0.00485705 0.00626384 -0.0202512 0.00555917 0.0105765 
-0.0196103 0.0163841 0.014919 -0.0155798 0.0258144 0.0183827 0.0252262 -0.0272971 0.00118044 
0.0225286 -0.0302393 -0.000307077 0.0190141 -0.0320972 -0.00116932 0.014777 -0.0329959 -0.00147843 
0.0100433 -0.0321823 -0.000936159 0.00493708 -0.0300845 0.000244659 9.92873e-05 -0.0259686 0.00230007 
-0.0045685 -0.0205746 0.00490939 -0.0079531 -0.0134753 0.00808517 -0.010656 -0.00547017 0.0115619 
-0.0111819 0.00317492 0.0150057 -0.0107474 0.0121023 0.0184349 -0.00792552 0.0198398 0.0210875 
0.0223954 -0.0251538 0.00598579 0.0204666 -0.0277421 0.00488386 0.0179487 -0.0293263 0.0043714 
0.0149097 -0.0300223 0.00438039 0.0115151 -0.0292498 0.00509848 0.0078537 -0.027376 0.00634839 
0.00438628 -0.023841 0.00827296 0.00104172 -0.0192539 0.0106248 -0.00138909 -0.0133148 0.0133723 
-0.00333448 -0.00665741 0.0163299 -0.00376179 0.000441167 0.0191792 -0.00351936 0.00773438 0.0219808 
-0.00164816 0.0140428 0.0240652 0.0198382 -0.023123 0.0101819 0.0186571 -0.0254771 0.00933548 
0.0170533 -0.0269089 0.00906085 0.0150756 -0.0275251 0.00929201 0.0128277 -0.0268889 0.0101435 
0.0103771 -0.0253133 0.0114603 0.00803067 -0.0223811 0.0133236 0.00575031 -0.0185897 0.015533 
0.00406331 -0.0137338 0.0180246 0.00269154 -0.00831245 0.0206661 0.00231463 -0.00257736 0.0231445 
0.00237663 0.00329617 0.0255511 0.00350723 0.00839059 0.0272655 0.0173653 -0.0215917 0.0136869 
0.0169047 -0.0238237 0.0129988 0.0161308 -0.0252078 0.0128796 0.0150796 -0.025842 0.0132635 
0.0138008 -0.0254025 0.0142159 0.0123513 -0.0241576 0.0155946 0.0109139 -0.0217972 0.0174399 
0.00948421 -0.0187303 0.0195807 0.00838403 -0.014816 0.02193 0.0074589 -0.0104517 0.02439 
0.00712246 -0.00585326 0.0266469 0.00704573 -0.00115161 0.0288142 0.00761595 0.00294379 0.030293 
0.0149504 -0.0204047 0.0167155 0.0151919 -0.0225921 0.0161186 0.0151896 -0.0240007 0.0160978 
0.0149718 -0.0247205 0.0165867 0.0145397 -0.0245192 0.0176176 0.0139468 -0.0236272 0.0190549 
0.0132722 -0.0218173 0.020912 0.0125459 -0.019426 0.023035 0.0119243 -0.0163558 0.0253203 
0.0113582 -0.0129248 0.0276917 0.0110554 -0.00930667 0.02983 0.0108687 -0.005606 0.0318653 
0.0110028 -0.00236138 0.0332014 0.0124841 -0.0199148 0.0191045 0.0133956 -0.0221 0.0185373 
0.0140932 -0.0235727 0.0185598 0.0146016 -0.0244151 0.0191042 0.0148848 -0.0244634 0.0201812 
0.0149992 -0.0239162 0.0216577 0.0149445 -0.022606 0.0235302 0.0147826 -0.0208126 0.0256534 
0.0145455 -0.0184651 0.0279127 0.0142684 -0.0158233 0.0302443 0.0140069 -0.0130211 0.0323223 
0.0137522 -0.0101482 0.0342886 0.0135743 -0.00761052 0.0355414 0.00998789 -0.0198296 0.0211221 
0.0115509 -0.0220374 0.0205489 0.0129066 -0.0235971 0.0205828 0.0140788 -0.0245836 0.0211537 
0.0150013 -0.024888 0.0222582 0.0157364 -0.0246809 0.0237628 0.0162184 -0.023841 0.0256527 
0.0165402 -0.0226003 0.0277865 0.016633 -0.0209053 0.0300418 0.0166042 -0.0189688 0.0323617 
0.0163884 -0.0168871 0.0344136 0.0160902 -0.0147413 0.0363473 0.0156722 -0.0128271 0.0375515 
0.00746452 -0.0205018 0.0225435 0.00961924 -0.022709 0.0219213 0.011552 -0.0243375 0.0219234 
0.0132884 -0.025454 0.0224778 0.0147408 -0.0259876 0.0235707 0.0159803 -0.0260838 0.0250677 
0.016894 -0.0256536 0.0269464 0.0176014 -0.0248899 0.0290669 0.0179622 -0.0237488 0.0313019 
0.0181388 -0.0224072 0.0335978 0.0179805 -0.0209289 0.0356186 0.0176744 -0.0193902 0.037518 
0.0171064 -0.0180001 0.0386805 0.00492797 -0.0215411 0.0236759 0.00764535 -0.0237366 0.0229839 
0.0101159 -0.025425 0.0229333 0.0123681 -0.0266648 0.02345 0.0142975 -0.0274144 0.0245125 
0.015985 -0.0277963 0.0259845 0.0172794 -0.0277463 0.0278383 0.018325 -0.0274228 0.0299338 
0.0189237 -0.0267879 0.0321406 0.0192849 -0.0259875 0.0344064 0.0191897 -0.0250558 0.0363938 
0.018893 -0.024066 0.0382582 0.0182188 -0.023152 0.0393822 0.00250262 -0.0232616 0.0242555 
0.00568384 -0.0253841 0.0234655 0.00858921 -0.0270782 0.0233287 0.0112506 -0.0283933 0.0237698 
0.0135525 -0.0293051 0.0247604 0.0155849 -0.0299145 0.026163 0.017172 -0.0301737 0.0279455 
0.018477 -0.0302111 0.0299685 0.0192653 -0.0299917 0.0321001 0.019779 -0.0296359 0.0342895 
0.019756 -0.0291536 0.0362028 0.0194964 -0.0286155 0.0379942 0.0187836 -0.0280965 0.0390564 
0.000121735 -0.0252545 0.0246141 0.00372729 -0.0272797 0.0237146 0.00702631 -0.0289578 0.0234783 
0.0100542 -0.030329 0.0238287 0.0126868 -0.0313815 0.0247306 0.015023 -0.032195 0.0260462 
0.0168674 -0.0327349 0.0277388 0.0184004 -0.0331015 0.0296702 0.0193589 -0.0332615 0.0317081 
0.0200122 -0.0333116 0.0338024 0.0200653 -0.0332399 0.0356254 0.0198535 -0.0331146 0.0373287 
0.0191294 -0.0329579 0.0383194 0.0293187 -0.024804 -0.0115965 0.0256014 -0.0279794 -0.0139601 
0.0206269 -0.0300348 -0.0154839 0.0145403 -0.0310996 -0.0162648 0.00761911 -0.0302596 -0.015657 
7.20951e-05 -0.0279911 -0.0140076 -0.00721444 -0.0233646 -0.0107519 -0.014336 -0.0172449 -0.00647884 
-0.0196554 -0.00899532 -0.00097576 -0.0240175 0.000385669 0.0051808 -0.0250018 0.0107836 0.0116245 
-0.024496 0.0216301 0.0181948 -0.0199641 0.0311274 0.0236054 0.026264 -0.0236014 -0.00567576 
0.023334 -0.0263958 -0.00738119 0.0194456 -0.0281016 -0.00832294 0.0147094 -0.0288444 -0.00858913 
0.00935904 -0.0278636 -0.00773846 0.00354817 -0.0255901 -0.00605014 -0.00203062 -0.0212553 -0.00314447 
-0.00746241 -0.0156151 0.000532181 -0.0114903 -0.00817592 0.00508637 -0.0147723 0.000219019 0.0101068 
-0.0155325 0.00935525 0.0152217 -0.01518 0.0188185 0.0203784 -0.0119572 0.0270207 0.0245203 
0.0235621 -0.0220156 -0.000343528 0.0214279 -0.0244893 -0.0015728 0.0185713 -0.0259303 -0.00209404 
0.0150758 -0.0264577 -0.00198895 0.011121 -0.0254614 -0.00095772 0.00682168 -0.0233223 0.000768111 
0.00269216 -0.0194337 0.00343915 -0.00132984 -0.0144369 0.00670881 -0.00432778 -0.00797759 0.0106067 
-0.00678169 -0.000741221 0.0148385 -0.00743761 0.00700981 0.0190402 -0.00730028 0.0149879 0.0232288 
-0.00516428 0.0218695 0.0265076 0.0210541 -0.0205405 0.00431446 0.019698 -0.0228023 0.00342748 
0.0177974 -0.024092 0.0032155 0.0154151 -0.0245217 0.00360064 0.0126751 -0.0236108 0.00478116 
0.0096668 -0.0216944 0.00655822 0.00674833 -0.0183011 0.00909098 0.00388676 -0.0139725 0.0121023 
0.00171442 -0.00846004 0.015567 -9.17809e-05 -0.00231859 0.0192726 -0.00068967 0.00417973 0.0228593 
-0.000754479 0.0108355 0.0263936 0.000505056 0.0165649 0.0290796 0.018704 -0.0191556 0.00842305 
0.0181117 -0.0212942 0.00776929 0.0171052 -0.022525 0.00777593 0.0157324 -0.0229528 0.00836677 
0.0140599 -0.0222094 0.00967111 0.0121628 -0.0205877 0.0115106 0.0102613 -0.0177301 0.0139836 
0.008357 -0.0140897 0.0168578 0.00684377 -0.0094972 0.020071 0.00553831 -0.00439879 0.0234642 
0.00496077 0.000954773 0.0266788 0.00470439 0.00642091 0.0298145 0.00525886 0.0111353 0.0321279 
0.016351 -0.0182236 0.0118686 0.0165004 -0.0203239 0.0113619 0.0163191 -0.0215781 0.0115162 
0.0158452 -0.0220839 0.0122551 0.0150951 -0.021564 0.0136615 0.0141377 -0.0202749 0.0155683 
0.0130794 -0.0179465 0.0180344 0.0119573 -0.0149597 0.0208545 0.0109752 -0.0111985 0.0239417 
0.0100674 -0.00702577 0.0271707 0.00950646 -0.00265992 0.030179 0.00909847 0.00179114 0.0330898 
0.00910585 0.00564316 0.0351803 0.0139961 -0.0176038 0.0148568 0.014872 -0.0197246 0.0144378 
0.0154682 -0.021059 0.0146908 0.0158172 -0.0216978 0.0155382 0.015889 -0.0214399 0.0170314 
0.0157531 -0.0205096 0.0190092 0.0154183 -0.0187058 0.0215046 0.0149576 -0.0163489 0.024328 
0.0144183 -0.0133578 0.0273757 0.0138373 -0.0100298 0.0305426 0.0132903 -0.0065434 0.0334589 
0.0127582 -0.00298705 0.0362645 0.0123275 0.000107929 0.0382356 0.0115357 -0.0176361 0.0172078 
0.0131061 -0.0198042 0.0168183 0.0144139 -0.0212472 0.0171179 0.0154897 -0.0220487 0.0180269 
0.0162676 -0.022066 0.019577 0.0168223 -0.0214952 0.0216079 0.0170865 -0.020186 0.0241374 
0.0171669 -0.0184093 0.0269827 0.0169911 -0.0161055 0.0300302 0.0166793 -0.0135217 0.033185 
0.0161593 -0.0107971 0.0360698 0.0155474 -0.00801026 0.0388354 0.0147974 -0.00556805 0.0407482 
0.0090141 -0.018047 0.0191888 0.0112603 -0.0202782 0.018795 0.0132416 -0.0218462 0.0191109 
0.0149884 -0.0228275 0.0200546 0.0164051 -0.0231276 0.021644 0.0175742 -0.0229167 0.0237176 
0.0183652 -0.0220848 0.0262839 0.0189168 -0.0208596 0.0291621 0.0190586 -0.019195 0.032232 
0.0189826 -0.0172969 0.0354037 0.0184972 -0.0152657 0.0382922 0.0178311 -0.0131758 0.0410557 
0.016831 -0.0113258 0.0429457 0.00642617 -0.0191728 0.0205662 0.00928577 -0.0214346 0.0201236 
0.0118591 -0.023103 0.0204102 0.0141792 -0.0242465 0.0213416 0.0161294 -0.0248045 0.0229261 
0.0178021 -0.0249234 0.0250004 0.019021 -0.0245217 0.0275661 0.0199525 -0.0237904 0.0304431 
0.0203561 -0.0226901 0.0335069 0.0204792 -0.021394 0.03667 0.0200459 -0.0199673 0.0395435 
0.0193671 -0.018483 0.0422891 0.0182127 -0.0171499 0.0441515 0.0038061 -0.0206451 0.0216509 
0.00724874 -0.0229218 0.0211381 0.0103748 -0.0246787 0.0213731 0.0132209 -0.0259759 0.0222696 
0.0156535 -0.0267798 0.0238277 0.017776 -0.0272138 0.0258821 0.0193748 -0.0272196 0.0284292 
0.0206419 -0.026954 0.0312883 0.0212804 -0.026382 0.0343323 0.0215848 -0.0256472 0.0374744 
0.0212121 -0.0247819 0.0403238 0.0205405 -0.023859 0.0430441 0.0192784 -0.0230062 0.0448763 
0.00127064 -0.0227559 0.0221773 0.00519241 -0.0249772 0.0215621 0.00876366 -0.0267615 0.0217065 
0.0120249 -0.0281593 0.0225229 0.0148322 -0.0291535 0.0240032 0.0172991 -0.029845 0.0259814 
0.0191886 -0.0301912 0.0284482 0.0207124 -0.0303185 0.0312245 0.0215392 -0.0301931 0.034181 
0.0219956 -0.0299333 0.0372332 0.0216986 -0.0295435 0.0399947 0.0210692 -0.0290964 0.0426279 
0.0197784 -0.028653 0.0443866 -0.00123096 -0.0251221 0.0224804 0.00312837 -0.02726 0.0217499 
0.00710177 -0.0290472 0.0217881 0.0107338 -0.0305243 0.0225063 0.0138728 -0.0316865 0.0238882 
0.016642 -0.0326126 0.0257676 0.0187865 -0.0332723 0.0281295 0.0205354 -0.0337633 0.0307969 
0.0215318 -0.0340517 0.033639 0.0221285 -0.0342325 0.0365738 0.0219134 -0.0342839 0.0392218 
0.0213401 -0.0342783 0.0417433 0.0200522 -0.0342159 0.0434111 0.0271367 -0.0189248 -0.0120131 
0.0240539 -0.0214297 -0.0138531 0.0199311 -0.0228963 -0.0148155 0.0148883 -0.0234444 -0.0150017 
0.00915053 -0.0223743 -0.01383 0.00289157 -0.0200904 -0.0116397 -0.00318649 -0.0158667 -0.00790066 
-0.00914996 -0.0104146 -0.00318066 -0.0136718 -0.00323581 0.00274692 -0.0174279 0.00486023 0.00931602 
-0.0184432 0.013714 0.0161591 -0.0182494 0.0229021 0.0231231 -0.0148019 0.0308841 0.0288452 
0.0246055 -0.0181963 -0.00659418 0.0223054 -0.0204696 -0.00788761 0.0191887 -0.0217179 -0.00837126 
0.0153495 -0.0220594 -0.00813858 0.0109697 -0.0208955 -0.00677652 0.00618466 -0.0186027 -0.00456743 
0.00153606 -0.0145673 -0.0011442 -0.00302609 -0.00942826 0.00304797 -0.006497 -0.00279871 0.00812022 
-0.0093882 0.00462266 0.01366 -0.0102654 0.012602 0.0192752 -0.0102542 0.0208275 0.0249236 
-0.0079365 0.0279129 0.0294592 0.0222857 -0.017166 -0.00163697 0.0207824 -0.0192529 -0.00252132 
0.0186422 -0.0203492 -0.00264337 0.0159385 -0.0205693 -0.00209108 0.0128019 -0.0194212 -0.000572749 
0.00934077 -0.0172469 0.00167012 0.00594291 -0.0135514 0.00488804 0.00258516 -0.00889247 0.00872351 
-2.2939e-05 -0.00299129 0.0132072 -0.0022328 0.00356983 0.0180352 -0.00305983 0.0105211 0.0228116 
-0.00327678 0.0176446 0.0275652 -0.00193275 0.0237537 0.0312994 0.0200479 -0.0162528 0.00273138 
0.0193341 -0.0182371 0.00214805 0.0181184 -0.0192723 0.0023017 0.0164588 -0.0194682 0.00310729 
0.0144332 -0.018428 0.00476901 0.0121332 -0.016461 0.00707282 0.00980843 -0.0131736 0.0101874 
0.00746793 -0.00905008 0.0138155 0.00556872 -0.00389391 0.0179322 0.00390394 0.00181083 0.0223085 
0.00309403 0.00778919 0.0265446 0.00266126 0.0138883 0.0307189 0.00319466 0.0191084 0.033924 
0.0178768 -0.0154351 0.00661991 0.0179465 -0.017385 0.00624957 0.0176131 -0.0184332 0.00660892 
0.016923 -0.0186838 0.00761377 0.0159008 -0.017827 0.00940837 0.0146294 -0.0161394 0.0117953 
0.0132329 -0.0133158 0.0148896 0.0117571 -0.00977268 0.018432 0.0104414 -0.0053751 0.0223624 
0.00921066 -0.000523571 0.0264988 0.00839088 0.00452669 0.0304378 0.00775239 0.00966464 0.0342897 
0.00760799 0.0140671 0.0371876 0.0156288 -0.0150496 0.00988885 0.0164662 -0.0170311 0.00965699 
0.0169611 -0.0181604 0.0101626 0.0171531 -0.0185358 0.0113205 0.0170187 -0.0179198 0.0132354 
0.0166396 -0.0165601 0.0157178 0.0160337 -0.0142206 0.0188498 0.0152842 -0.0112604 0.0223933 
0.0144523 -0.0075857 0.0262665 0.0135767 -0.00353137 0.030315 0.0127495 0.000678103 0.034128 
0.0119437 0.00495602 0.0378371 0.0112559 0.00863114 0.040583 0.0133276 -0.0149621 0.0127305 