# vtk DataFile Version 2.0
vtk output
ASCII
DATASET RECTILINEAR_GRID
DIMENSIONS 13 13 13
X_COORDINATES 13 float
0 0.208333 0.416667 0.625 0.833333 1.04167 1.25 1.45833 1.66667 
1.875 2.08333 2.29167 2.5 
Y_COORDINATES 13 float
-10 -9.79167 -9.58333 -9.375 -9.16667 -8.95833 -8.75 -8.54167 -8.33333 
-8.125 -7.91667 -7.70833 -7.5 
Z_COORDINATES 13 float
-7.5 -7.29167 -7.08333 -6.875 -6.66667 -6.45833 -6.25 -6.04167 -5.83333 
-5.625 -5.41667 -5.20833 -5 
POINT_DATA 2197
VECTORS grad float
-0.0296861 0.0390598 0.00105584 -0.0279669 0.0350053 -0.00162068 -0.0251473 0.0314252 -0.0036958 
-0.0222763 0.0278933 -0.00571405 -0.0186169 0.025099 -0.00686048 -0.0149157 0.0224059 -0.0078923 
-0.010847 0.0206036 -0.00791567 -0.0067905 0.0189525 -0.00777874 -0.00280731 0.0182078 -0.00667999 
0.00107886 0.0176425 -0.00541325 0.00453385 0.0178744 -0.00339991 0.0078046 0.0182842 -0.00125944 
0.0104389 0.0193087 0.00132027 -0.0336654 0.0403084 -0.000710779 -0.0317825 0.0361055 -0.00395451 
-0.0286388 0.0323914 -0.00652339 -0.0254357 0.0287265 -0.00902648 -0.0213226 0.0258172 -0.0105206 
-0.0171606 0.0230114 -0.0118799 -0.0125688 0.0211163 -0.012053 -0.0079898 0.0193755 -0.0120361 
-0.00348747 0.018561 -0.0108792 0.000905413 0.0179297 -0.00952312 0.00481189 0.0181135 -0.00728135 
0.00851101 0.0184797 -0.00488911 0.0114938 0.0194759 -0.00197707 -0.0376682 0.0416246 -0.00246196 
-0.0356207 0.0372687 -0.00627761 -0.0321515 0.0334165 -0.00934452 -0.028615 0.0296148 -0.0123366 
-0.0240464 0.0265868 -0.0141819 -0.019422 0.0236646 -0.015872 -0.0143052 0.021673 -0.0161969 
-0.00920185 0.0198391 -0.016302 -0.00417856 0.018951 -0.0150879 0.000722833 0.0182503 -0.0136431 
0.00508249 0.0183825 -0.0111728 0.00921167 0.0187016 -0.00852855 0.0125447 0.0196665 -0.00528351 
-0.0422233 0.0445279 -0.00385005 -0.0399896 0.0399113 -0.00834857 -0.0361626 0.0358274 -0.0120134 
-0.0322598 0.0317956 -0.0155933 -0.0271964 0.028563 -0.0178694 -0.0220695 0.0254385 -0.0199671 
-0.0163846 0.0232663 -0.0204949 -0.0107137 0.021255 -0.0207687 -0.00512654 0.0202094 -0.0195182 
0.000325741 0.0193556 -0.018001 0.00517858 0.0193547 -0.0152993 0.00977733 0.0195474 -0.0123972 
0.0134983 0.0204084 -0.00880321 -0.0468148 0.0474855 -0.00516751 -0.0443921 0.0426156 -0.0103554 
-0.0402054 0.0383077 -0.0146235 -0.0359346 0.0340534 -0.0187962 -0.0303754 0.0306215 -0.0215077 
-0.0247454 0.0272998 -0.0240174 -0.0184922 0.0249486 -0.0247524 -0.0122535 0.022761 -0.025199 
-0.0061023 0.0215552 -0.0239158 -9.87688e-05 0.0205451 -0.0223302 0.00524824 0.020405 -0.0194008 
0.0103178 0.0204645 -0.0162446 0.014429 0.0212138 -0.0123049 -0.0518149 0.0510518 -0.0056905 
-0.0491726 0.0460141 -0.0116413 -0.044605 0.0415681 -0.0165712 -0.0399459 0.0371759 -0.021395 
-0.0338819 0.0336064 -0.0245924 -0.0277405 0.0301448 -0.0275644 -0.020917 0.0276332 -0.0285529 
-0.0141086 0.0252809 -0.0292185 -0.00739068 0.023885 -0.0279466 -0.000831725 0.0226814 -0.0263361 
0.00502053 0.0223328 -0.0232211 0.0105751 0.0221853 -0.0198518 0.0151016 0.0227322 -0.0156044 
-0.0568439 0.054642 -0.00604961 -0.0539761 0.0494525 -0.012766 -0.0490268 0.0448842 -0.0183575 
-0.0439785 0.0403693 -0.0238321 -0.0374138 0.0366737 -0.0275162 -0.0307651 0.0330831 -0.0309517 
-0.0233781 0.0304158 -0.0321986 -0.0160066 0.0279027 -0.0330888 -0.00872818 0.0263143 -0.0318382 
-0.00161944 0.0249139 -0.0302135 0.00473508 0.0243489 -0.0269264 0.0107728 0.0239856 -0.0233578 
0.015716 0.0243191 -0.0188168 -0.0620797 0.0584034 -0.00523432 -0.0589448 0.0531774 -0.0127361 
-0.0536068 0.0485985 -0.0189871 -0.0481647 0.044071 -0.0251111 -0.0411275 0.0403317 -0.0292873 
-0.034002 0.0366895 -0.0331946 -0.0260993 0.0339015 -0.0347351 -0.0182121 0.0312549 -0.0358902 
-0.0104178 0.0294573 -0.0347323 -0.0027996 0.0278358 -0.0331696 0.00403585 0.026997 -0.0298077 
0.0105426 0.0263558 -0.0261382 0.015914 0.0263971 -0.021406 -0.0673086 0.0620728 -0.0041614 
-0.0638981 0.0568372 -0.0124419 -0.0581737 0.0522713 -0.0193405 -0.0523408 0.0477544 -0.0261022 
-0.0448438 0.0439888 -0.0307629 -0.0372547 0.0403115 -0.0351356 -0.0288545 0.037412 -0.0369739 
-0.0204695 0.0346402 -0.0383999 -0.012176 0.0326347 -0.0373526 -0.00406375 0.0307923 -0.0358714 
0.00324307 0.0296751 -0.032462 0.0102115 0.0287505 -0.0287193 0.0160107 0.0284915 -0.0238252 
-0.0725027 0.0652708 -0.00176814 -0.068772 0.060163 -0.010793 -0.0626734 0.0557312 -0.0182783 
-0.0564651 0.0513441 -0.0256181 -0.0485736 0.0476408 -0.0307243 -0.0405889 0.044013 -0.0355296 
-0.031784 0.0410496 -0.0376865 -0.022993 0.0381943 -0.0394146 -0.0142858 0.0359879 -0.038569 
-0.00575823 0.033926 -0.0372695 0.00197082 0.032506 -0.0339524 0.00936245 0.0312701 -0.0302788 
0.0155885 0.0306695 -0.0253735 -0.0776181 0.0681791 0.000904905 -0.0735608 0.0632389 -0.00884419 
-0.0670985 0.0589716 -0.0168912 -0.060526 0.054744 -0.0247845 -0.0522644 0.0511245 -0.0303199 
-0.0439093 0.0475668 -0.0355433 -0.0347308 0.0445538 -0.0380214 -0.0255645 0.0416286 -0.040057 
-0.0164714 0.03923 -0.0394365 -0.00755437 0.0369565 -0.0383447 0.000580194 0.0352386 -0.0351577 
0.00838148 0.0336953 -0.0315915 0.0150314 0.0327551 -0.0267155 -0.0824265 0.0699573 0.00466912 
-0.078018 0.0653403 -0.00572594 -0.0712322 0.0613556 -0.014237 -0.0643393 0.0574035 -0.0225883 
-0.0558033 0.0539514 -0.0284889 -0.047176 0.0505448 -0.0340742 -0.0377451 0.0475378 -0.0368831 
-0.0283229 0.0445951 -0.0392474 -0.0189527 0.0420386 -0.0389434 -0.00974696 0.0395847 -0.0381608 
-0.00127213 0.0375872 -0.0352507 0.00688576 0.0357526 -0.0319414 0.0139488 0.0344805 -0.0272531 
-0.087038 0.071236 0.00859533 -0.0822869 0.0669958 -0.00240693 -0.0752037 0.0633289 -0.0113461 
-0.0680171 0.0596869 -0.0201202 -0.0592449 0.0564262 -0.0263648 -0.0503841 0.053194 -0.0322926 
-0.0407432 0.0502124 -0.0354332 -0.0311066 0.0472715 -0.0381302 -0.0214959 0.0445748 -0.0381661 
-0.0120354 0.0419583 -0.0377188 -0.00324277 0.039698 -0.035124 0.00525295 0.0375885 -0.0321105 
0.0127231 0.0359995 -0.0276507 -0.0324417 0.0369345 -0.00195505 -0.0304798 0.0322568 -0.0048553 
-0.0272345 0.0281333 -0.00709866 -0.0239289 0.0240678 -0.00927739 -0.0196978 0.0208934 -0.0104654 
-0.0154192 0.017843 -0.0115207 -0.0107235 0.0158848 -0.0114084 -0.00604871 0.0141113 -0.0111106 
-0.00149978 0.0134461 -0.0096993 0.00292238 0.0129954 -0.00809814 0.00678114 0.0134979 -0.00565305 
0.0104081 0.0142037 -0.00307456 0.0132343 0.0156118 -3.52041e-05 -0.0370266 0.0382778 -0.00434073 
-0.0348783 0.0334186 -0.00790491 -0.0312465 0.029131 -0.0107337 -0.0275441 0.0249032 -0.0134871 
-0.0227603 0.02159 -0.0150841 -0.0179202 0.0184041 -0.016523 -0.0125841 0.0163382 -0.0165695 
-0.00727071 0.0144616 -0.0163927 -0.00209378 0.0137212 -0.0148755 0.00293823 0.0132006 -0.0131297 
0.00732611 0.0136569 -0.0103679 0.0114501 0.0143219 -0.00744655 0.0146624 0.0157076 -0.00397374 
-0.0416403 0.0396984 -0.00671374 -0.0393045 0.0346521 -0.0109478 -0.0352842 0.0301959 -0.0143675 
-0.0311833 0.0258008 -0.017701 -0.0258447 0.0223447 -0.0197116 -0.0204407 0.0190189 -0.0215382 
-0.0144616 0.0168412 -0.0217461 -0.00850699 0.0148575 -0.0216925 -0.00269954 0.0140377 -0.0200699 
0.00294476 0.0134431 -0.0181797 0.00786393 0.0138493 -0.0151004 0.012487 0.0144695 -0.0118351 
0.0160873 0.0158292 -0.00792723 -0.0469293 0.0429345 -0.00878868 -0.0443798 0.0375719 -0.0138318 
-0.0399298 0.0328363 -0.0179724 -0.0353881 0.0281641 -0.0220143 -0.0294405 0.0244643 -0.024542 
-0.0234179 0.0208984 -0.0268556 -0.0167349 0.0185113 -0.0272851 -0.0100786 0.0163229 -0.0274082 
-0.00358159 0.0153269 -0.0256928 0.00273245 0.0145621 -0.0236646 0.00823356 0.0148245 -0.0202459 
0.0134047 0.0153086 -0.0166115 0.017436 0.0165589 -0.0122319 -0.0522619 0.0462481 -0.0107879 
-0.0494951 0.040579 -0.0166478 -0.0446129 0.0355743 -0.0215156 -0.0396281 0.0306351 -0.0262722 
-0.0330704 0.026699 -0.0293226 -0.0264282 0.0228998 -0.0321286 -0.019041 0.0203052 -0.0327845 
-0.0116825 0.0179132 -0.0330889 -0.00449568 0.016737 -0.0312847 0.0024886 0.015797 -0.0291224 
0.00857277 0.0159065 -0.025368 0.0142934 0.016245 -0.021368 0.0187583 0.0173745 -0.0165199 
-0.0580862 0.0504339 -0.0119353 -0.0550607 0.0445691 -0.0186981 -0.0497184 0.0394108 -0.0243645 
-0.0442635 0.0343179 -0.0299066 -0.0370834 0.0302285 -0.0335418 -0.0298099 0.0262727 -0.0369015 
-0.0217149 0.0234928 -0.037837 -0.0136505 0.0209095 -0.038375 -0.00577013 0.0195064 -0.0365275 
0.00188976 0.0183346 -0.0342755 0.00856977 0.0181904 -0.030226 0.0148563 0.0182765 -0.0259003 
0.0197835 0.0191578 -0.0206208 -0.0639431 0.0546706 -0.0128893 -0.0606501 0.0486306 -0.0205561 
-0.0548461 0.0433392 -0.0270184 -0.0489202 0.0381129 -0.0333433 -0.041123 0.0338854 -0.0375623 
-0.0332243 0.0297872 -0.0414753 -0.0244308 0.0268276 -0.0426956 -0.0156701 0.0240574 -0.0434733 
-0.00710499 0.0224227 -0.0415948 0.0012225 0.021013 -0.0392666 0.00849402 0.0206026 -0.0349395 
0.0153435 0.0204229 -0.030306 0.0207351 0.02104 -0.0246138 -0.0700331 0.0592726 -0.0124573 
-0.0664105 0.0532036 -0.0210357 -0.0601337 0.0479264 -0.028274 -0.0537283 0.0427117 -0.0353628 
-0.045354 0.0384548 -0.0401585 -0.0368725 0.0343161 -0.0446223 -0.0274488 0.0312182 -0.0461642 
-0.018059 0.0282914 -0.0472258 -0.00887277 0.026392 -0.0454054 6.47759e-05 0.0247006 -0.0430967 
0.00789697 0.0239344 -0.0386182 0.0152888 0.0233933 -0.0338046 0.0211592 0.0236302 -0.0278333 
-0.0761107 0.0637867 -0.0117037 -0.0721442 0.0577211 -0.0211804 -0.0653964 0.0524874 -0.0291739 
-0.0585147 0.0473131 -0.0370061 -0.0495807 0.0430481 -0.0423641 -0.0405349 0.0388892 -0.0473659 
-0.0305067 0.0356633 -0.0492327 -0.0205133 0.032589 -0.0505846 -0.0107296 0.0304244 -0.0488465 
-0.00120371 0.0284497 -0.0465843 0.00717607 0.0273191 -0.0419927 0.0151001 0.0264075 -0.0370379 
0.0214498 0.0262521 -0.0308286 -0.0821247 0.0678504 -0.00930154 -0.0777404 0.061954 -0.0196089 
-0.070532 0.0569138 -0.0282507 -0.0631892 0.0519273 -0.0367213 -0.0537853 0.0477637 -0.0425673 
-0.0442694 0.0436883 -0.0480421 -0.0337687 0.0403884 -0.0502511 -0.0233024 0.0372125 -0.0519256 
-0.0130426 0.0347807 -0.0503941 -0.00303983 0.0325131 -0.0483159 0.00582046 0.0309751 -0.0438079 
0.0142253 0.0296454 -0.0389116 0.021057 0.0290355 -0.0326741 -0.0880411 0.0715723 -0.0065339 
-0.0832256 0.0658917 -0.0176423 -0.0755678 0.0610792 -0.026894 -0.0677764 0.056314 -0.0359654 
-0.0579353 0.0522754 -0.0422726 -0.047983 0.0483062 -0.0481967 -0.0370529 0.0449476 -0.050749 
-0.026156 0.0416845 -0.052752 -0.0154585 0.038995 -0.05146 -0.00501423 0.0364431 -0.0496025 
0.00430469 0.0345029 -0.0452318 0.0131731 0.0327599 -0.0404485 0.0204851 0.0316983 -0.0342401 
-0.0935776 0.0739617 -0.00234095 -0.0882778 0.0686776 -0.0141345 -0.0802145 0.0642265 -0.0238464 
-0.0720233 0.059814 -0.0333716 -0.0618724 0.0559921 -0.0400363 -0.0516153 0.0522176 -0.0463168 
-0.0404234 0.04886 -0.0492173 -0.029261 0.0455663 -0.0515715 -0.0182757 0.0426556 -0.0506472 
-0.00752798 0.039853 -0.0491536 0.00216423 0.037531 -0.04513 0.0114286 0.0353929 -0.0406725 
0.0192152 0.0338902 -0.0347161 -0.0988781 0.0757299 0.00208336 -0.0931002 0.070905 -0.0103476 
-0.084662 0.0668527 -0.0204723 -0.0761029 0.0628292 -0.0304054 -0.0656913 0.0592478 -0.0373981 
-0.0551791 0.0556913 -0.0440089 -0.043781 0.0523548 -0.0472587 -0.0324076 0.0490507 -0.0499693 
-0.0211823 0.04594 -0.0494454 -0.010175 0.0429082 -0.0483522 -0.000137063 0.0402267 -0.0447287 
0.00950111 0.0377157 -0.0406507 0.0177583 0.0357935 -0.0350021 -0.0353159 0.0344078 -0.00493906 
-0.033105 0.0290441 -0.00805952 -0.0294065 0.0243157 -0.0104707 -0.0256374 0.0196566 -0.0128092 
-0.0207861 0.0160604 -0.0140328 -0.0158807 0.0126149 -0.0151042 -0.0105003 0.0104954 -0.0148365 
-0.00515104 0.00859994 -0.0143558 1.13954e-05 0.00804884 -0.0125973 0.00501259 0.00775241 -0.0106258 
0.00929715 0.00858788 -0.00770783 0.0132955 0.00965368 -0.00465156 0.0163052 0.0115152 -0.00111755 
-0.0405664 0.0358299 -0.00799687 -0.0381484 0.0302463 -0.0118877 -0.0339954 0.025318 -0.0149886 
-0.0297589 0.0204611 -0.0180039 -0.0242418 0.0166977 -0.0197076 -0.0186593 0.0130893 -0.0212274 
-0.0125017 0.0108456 -0.0211282 -0.00637863 0.00883249 -0.0207685 -0.000462049 0.00820285 -0.0188459 
0.00526786 0.00783496 -0.0166631 0.0101681 0.00863046 -0.0133238 0.014739 0.00966255 -0.00981717 
0.0181719 0.011512 -0.00573267 -0.0458517 0.0373393 -0.0110461 -0.0432253 0.0315291 -0.0157148 
-0.0386157 0.0263955 -0.0195125 -0.0339096 0.0213352 -0.0232118 -0.0277236 0.0173996 -0.0254015 
-0.0214608 0.0136234 -0.0273751 -0.0145225 0.0112507 -0.0274474 -0.00762194 0.00911518 -0.0272112 
-0.000947779 0.00840235 -0.0251246 0.00551416 0.00795839 -0.0227301 0.0110329 0.00870943 -0.0189673 
0.0161788 0.00970345 -0.015008 0.0200369 0.0115368 -0.0103702 -0.0519545 0.040898 -0.0138939 
-0.0490909 0.0347083 -0.0195143 -0.0439737 0.0292391 -0.024178 -0.0387457 0.0238461 -0.0287283 
-0.0318182 0.0196206 -0.0315398 -0.0248012 0.0155596 -0.0340966 -0.0169971 0.0129457 -0.034412 
-0.00923466 0.010576 -0.0343607 -0.00172216 0.00967065 -0.0321091 0.00554944 0.0090421 -0.029493 
0.0117503 0.00964374 -0.0252566 0.0175315 0.0104972 -0.0207911 0.0218625 0.0122208 -0.0155338 
-0.0581091 0.0445619 -0.0166627 -0.0550038 0.0380056 -0.0232439 -0.0493759 0.0322146 -0.0287816 
-0.043623 0.0265023 -0.0341908 -0.0359525 0.0219968 -0.0376312 -0.0281799 0.0176601 -0.0407781 
-0.0195093 0.0148075 -0.0413421 -0.0108842 0.0122047 -0.041481 -0.00253276 0.0111008 -0.0390683 
0.00554924 0.0102804 -0.0362342 0.0124336 0.01072 -0.0315271 0.0188516 0.0114198 -0.0265581 
0.0236584 0.013018 -0.0206842 -0.064847 0.0494104 -0.0185429 -0.061448 0.0426316 -0.0261868 
-0.0552751 0.0366728 -0.0326884 -0.0489639 0.0307927 -0.039046 -0.0405333 0.0261187 -0.043195 
-0.0319889 0.0216089 -0.0470099 -0.0224438 0.0185448 -0.0478847 -0.0129483 0.0157225 -0.0482729 
-0.00375098 0.0143517 -0.0457417 0.00514984 0.0132576 -0.0427304 0.0127326 0.0133936 -0.0375852 
0.0198062 0.0137905 -0.032145 0.0251205 0.0150892 -0.0256856 -0.0716198 0.0543443 -0.0201993 
-0.0679151 0.047369 -0.0289044 -0.061195 0.0412697 -0.036364 -0.0543241 0.0352487 -0.043664 
-0.0451409 0.0304262 -0.0485184 -0.0358329 0.0257623 -0.052999 -0.0254264 0.0224936 -0.0541897 
-0.0150736 0.0194568 -0.054834 -0.00504252 0.0178111 -0.0521995 0.00466603 0.0164335 -0.0490274 
0.0129412 0.016247 -0.0434663 0.0206662 0.0163214 -0.0375775 0.0264906 0.0172975 -0.0305563 
-0.0786426 0.0598901 -0.0202518 -0.0745464 0.0529052 -0.0300073 -0.0672637 0.0468606 -0.0383818 
-0.0598218 0.0408906 -0.0465825 -0.049941 0.0360649 -0.0521193 -0.0399282 0.0313823 -0.0572487 
-0.0287542 0.0279588 -0.0587929 -0.0176369 0.024742 -0.0597409 -0.00685962 0.0227651 -0.0571119 
0.00357737 0.0210331 -0.0538972 0.0125021 0.0203897 -0.0480793 0.0208494 0.0200004 -0.0419033 
0.027202 0.0204888 -0.03449 -0.0856426 0.0653579 -0.0199115 -0.0811331 0.0584024 -0.0306949 
-0.0732894 0.0524488 -0.0399507 -0.0652797 0.0465657 -0.049019 -0.0547251 0.0417634 -0.0552137 
-0.0440328 0.0370872 -0.0609701 -0.0321273 0.0335209 -0.0628695 -0.0202812 0.0301339 -0.0641275 
-0.00879078 0.0278227 -0.0615367 0.00234445 0.0257314 -0.0583157 0.0119012 0.0246176 -0.052294 
0.0208576 0.02375 -0.0458844 0.02774 0.023733 -0.0381346 -0.0925253 0.0704257 -0.0175584 
-0.0874917 0.0636992 -0.0292534 -0.0790952 0.0580231 -0.0392186 -0.0705328 0.0524102 -0.0489856 
-0.0594275 0.0477677 -0.0557124 -0.0481848 0.0432267 -0.0619838 -0.035733 0.0395793 -0.0642476 
-0.0233408 0.0360727 -0.0658474 -0.0113065 0.0334119 -0.0634625 0.000372243 0.030936 -0.060422 
0.0104709 0.0292818 -0.0544676 0.0199685 0.0278614 -0.0480988 0.0273894 0.0272481 -0.0402983 
-0.099285 0.0750966 -0.0147423 -0.0937041 0.0686518 -0.0273054 -0.0847667 0.0632908 -0.0379228 
-0.0756654 0.0579852 -0.048332 -0.0640526 0.0535276 -0.0555492 -0.0523044 0.049146 -0.062298 
-0.039365 0.0454335 -0.064925 -0.0264847 0.0418228 -0.066872 -0.013959 0.0388225 -0.0647386 
-0.00178473 0.0359713 -0.0619295 0.00882758 0.033783 -0.0561176 0.0188444 0.0318153 -0.0498655 
0.0268043 0.0306098 -0.0420927 -0.105565 0.0782201 -0.0101203 -0.0993462 0.0722617 -0.0233818 
-0.0899145 0.0673632 -0.0344281 -0.0803285 0.0625089 -0.04526 -0.0683767 0.0583342 -0.0528045 
-0.0562977 0.0542065 -0.0598839 -0.0431002 0.050492 -0.0628694 -0.0299576 0.0468366 -0.065185 
-0.0171449 0.0435364 -0.0634803 -0.00466228 0.0403467 -0.0611013 0.00635298 0.0376482 -0.0557252 
0.0168038 0.0351554 -0.0498861 0.0253046 0.0333732 -0.0424471 -0.111566 0.0805851 -0.00518704 
-0.104709 0.0751836 -0.0190876 -0.094819 0.0707842 -0.0305009 -0.0847854 0.0664171 -0.041695 
-0.0725565 0.062546 -0.049527 -0.0602097 0.0586927 -0.056901 -0.0468262 0.0549961 -0.0602454 
-0.0334919 0.051317 -0.062936 -0.0204537 0.0477428 -0.0617038 -0.00771925 0.0442411 -0.0598035 
0.00366523 0.0410625 -0.0549345 0.0145236 0.0380748 -0.04958 0.0235645 0.0357466 -0.0425486 
-0.038487 0.0308773 -0.00785589 -0.0360108 0.0246708 -0.0111878 -0.0317902 0.0191841 -0.0137657 
-0.0274856 0.0137808 -0.0162621 -0.0218928 0.009659 -0.0175064 -0.0162372 0.00572366 -0.0185755 
-0.010028 0.00342947 -0.018103 -0.00386366 0.00141296 -0.0173847 0.00203172 0.00106261 -0.0151921 
0.00771956 0.00101982 -0.0127605 0.012485 0.002344 -0.00926674 0.0168927 0.00392973 -0.00563326 
0.0200648 0.00641897 -0.00151709 -0.0445526 0.0323386 -0.0117185 -0.041854 0.0258605 -0.0159517 
-0.0370975 0.0201233 -0.019355 -0.03224 0.0144723 -0.0226614 -0.0258325 0.0101426 -0.0244812 
-0.019347 0.00600593 -0.0260854 -0.0121753 0.00356685 -0.0257922 -0.00505402 0.00141518 -0.0251924 
0.0017648 0.000987936 -0.0227519 0.00833958 0.000878127 -0.0200139 0.0138297 0.00217915 -0.0159529 
0.0189025 0.00374907 -0.0117207 0.0225337 0.00624791 -0.00689732 -0.0506612 0.0338977 -0.01558 
-0.0477389 0.0271402 -0.020724 -0.042444 0.0211459 -0.0249626 -0.0370308 0.0152405 -0.0290887 
-0.0298042 0.0106971 -0.0314921 -0.0224845 0.00635304 -0.0336389 -0.0143449 0.00376355 -0.033529 
-0.00626141 0.00147123 -0.0330506 0.00148583 0.000961939 -0.0303612 0.00895225 0.000780006 -0.0273149 
0.0151706 0.00205303 -0.0226823 0.0209117 0.00360241 -0.017847 0.0250041 0.00610649 -0.0123113 
-0.0577778 0.0377538 -0.0194156 -0.0546045 0.0305345 -0.0256951 -0.0487095 0.0241271 -0.0310001 
-0.0426765 0.0178121 -0.0361748 -0.0345296 0.0129145 -0.0393505 -0.0262719 0.00822373 -0.0422187 
-0.0170389 0.00535393 -0.0423806 -0.00786887 0.00279229 -0.0420957 0.000923534 0.00207968 -0.0391296 
0.00939214 0.00170572 -0.0357336 0.0164216 0.00283688 -0.0304276 0.0229067 0.00425445 -0.0248838 
0.027511 0.00666141 -0.018519 -0.0649564 0.0417538 -0.0231735 -0.0615266 0.0340902 -0.0305995 
-0.0550277 0.0272889 -0.0369821 -0.0483715 0.0205833 -0.0432162 -0.039302 0.0153454 -0.0471743 
-0.0301042 0.0103209 -0.0507734 -0.0197762 0.00717396 -0.0512139 -0.00951802 0.00434445 -0.0511286 
0.000320918 0.00341941 -0.0478884 0.00979312 0.00284262 -0.0441451 0.0176354 0.00381364 -0.0381662 
0.0248663 0.00508031 -0.0319148 0.0299854 0.0073683 -0.024722 -0.0728315 0.0473731 -0.0260576 
-0.0690837 0.0394625 -0.0347552 -0.0619404 0.0324833 -0.0423386 -0.0546212 0.0255995 -0.0497547 
-0.0446042 0.0201789 -0.0546079 -0.0344418 0.0149657 -0.0590468 -0.0230003 0.0115777 -0.0598411 
-0.0116361 0.00849652 -0.0600241 -0.000735288 0.0072565 -0.0565393 0.00975639 0.00635541 -0.0524743 
0.0184296 0.00696063 -0.0458305 0.0264279 0.0078617 -0.0388803 0.0320949 0.00978482 -0.0308714 
-0.0807404 0.0531305 -0.0286853 -0.0766582 0.045008 -0.0386483 -0.0688679 0.0378891 -0.0474212 
-0.0608839 0.0308646 -0.0560086 -0.0499304 0.0252901 -0.0617501 -0.0388154 0.0199151 -0.0670233 
-0.0262791 0.0162949 -0.0681765 -0.0138273 0.0129679 -0.0686348 -0.00188186 0.0113994 -0.0649241 
0.00961358 0.0101576 -0.0605578 0.0191091 0.0103678 -0.0532775 0.0278689 0.0108729 -0.0456572 
0.0340872 0.0123969 -0.0368626 -0.0888924 0.0598784 -0.0294748 -0.0843577 0.0517952 -0.0406594 
-0.0759016 0.0448102 -0.0505418 -0.06724 0.0379148 -0.0602222 -0.0554293 0.0323927 -0.066804 
-0.0434465 0.0270476 -0.0728723 -0.0299491 0.0232595 -0.0744207 -0.016542 0.0197278 -0.0752047 
-0.00367611 0.0177343 -0.0714021 0.00871054 0.0160344 -0.066881 0.0189673 0.01564 -0.059167 
0.0284465 0.0155315 -0.0510827 0.0352391 0.016411 -0.0417198 -0.096999 0.0665724 -0.029783 
-0.0919791 0.0585768 -0.0421494 -0.0828582 0.0517731 -0.0530859 -0.0735221 0.0450531 -0.0638047 
-0.0608888 0.0396184 -0.0711845 -0.0480747 0.034336 -0.0780094 -0.0336692 0.0303942 -0.0799513 
-0.0193591 0.0266689 -0.081066 -0.00562104 0.0242425 -0.0772178 0.00761297 0.0220741 -0.0725938 
0.0186066 0.0210523 -0.064522 0.0287869 0.0203065 -0.0560505 0.0361578 0.0205145 -0.0461977 
-0.104873 0.0729903 -0.027624 -0.0992003 0.0653295 -0.0409692 -0.0894198 0.058949 -0.0526755 
-0.0794252 0.0526427 -0.0641524 -0.0661462 0.0474745 -0.0721128 -0.0526874 0.0424232 -0.0794982 
-0.037646 0.0384005 -0.0818245 -0.0227014 0.0345384 -0.0832961 -0.00833815 0.0316392 -0.0796393 
0.00551852 0.0289482 -0.0751775 0.0171236 0.0271829 -0.0671383 0.0279124 0.0256787 -0.0586722 
0.0358816 0.0250768 -0.0487314 -0.112581 0.0789483 -0.0248747 -0.106217 0.0716801 -0.0391309 
-0.0957893 0.0657628 -0.0515169 -0.0851512 0.0599091 -0.0636633 -0.0712862 0.0550328 -0.0721353 
-0.057245 0.0502371 -0.0800187 -0.0416521 0.0461501 -0.0827224 -0.0261563 0.0421668 -0.0845542 
-0.0112428 0.038806 -0.0811548 0.00316825 0.0356033 -0.0769293 0.0153465 0.0331024 -0.0690324 
0.0267152 0.0308475 -0.0606821 0.0352872 0.0294421 -0.050765 -0.119645 0.0831132 -0.0198229 
-0.112436 0.0764629 -0.0347258 -0.101409 0.0711641 -0.0474408 -0.0901867 0.0659152 -0.0599109 
-0.0759688 0.0614301 -0.0686253 -0.0615879 0.0569856 -0.0767621 -0.0457732 0.0528982 -0.0798164 
-0.0300504 0.0488549 -0.0820221 -0.0148792 0.0450768 -0.0791369 -0.000179735 0.0414039 -0.0754361 
0.0124227 0.0381988 -0.0681103 0.0242596 0.0352231 -0.0603059 0.0334516 0.0330394 -0.050848 
-0.126372 0.0863434 -0.0143536 -0.118309 0.0803855 -0.0298264 -0.106723 0.0757346 -0.0427854 
-0.0949595 0.0711185 -0.0554959 -0.0804684 0.067036 -0.0643948 -0.0658295 0.0629547 -0.0727329 
-0.0498896 0.0588847 -0.0761354 -0.0340345 0.0548014 -0.0787217 -0.0186878 0.0506391 -0.0764099 
-0.00377513 0.0465314 -0.0733 0.00920902 0.042666 -0.0666427 0.021482 0.0390137 -0.0594821 
0.0312982 0.0360976 -0.0505826 -0.0417707 0.0267759 -0.0105376 -0.0390297 0.0196309 -0.014055 
-0.0342558 0.0132824 -0.0167818 -0.0293825 0.00703339 -0.0194179 -0.0229823 0.00231143 -0.020664 
-0.0165087 -0.00218144 -0.0217105 -0.00938812 -0.00465827 -0.0210019 -0.00232837 -0.00679299 -0.0200129 
0.00436646 -0.00687499 -0.0173416 0.0107995 -0.00658774 -0.014405 0.0160689 -0.0046594 -0.0102894 
0.0208983 -0.00243708 -0.00603597 0.0242071 0.000800761 -0.0013067 -0.0487425 0.0282348 -0.0152391 
-0.045772 0.0207552 -0.0197992 -0.0403756 0.0140912 -0.0235047 -0.0348572 0.00753017 -0.0271015 
-0.027469 0.00254733 -0.0290339 -0.0199873 -0.00219708 -0.0307163 -0.0116825 -0.00484337 -0.0301993 
-0.00344718 -0.0071331 -0.0293248 0.00437188 -0.00728345 -0.0263053 0.0118783 -0.00705083 -0.0229488 
0.017995 -0.00511602 -0.0180949 0.0235914 -0.00287897 -0.0130702 0.0273902 0.00040224 -0.00745561 
-0.0557672 0.0298016 -0.0199491 -0.0525664 0.0219782 -0.0255644 -0.0465443 0.0149906 -0.0302619 
-0.0403777 0.00810937 -0.0348328 -0.0319954 0.00285834 -0.0374627 -0.0234994 -0.00214485 -0.0397915 
-0.0140027 -0.004967 -0.0394709 -0.00458399 -0.00741803 -0.0387146 0.00436649 -0.00764223 -0.0353439 
0.012953 -0.0074696 -0.0315637 0.0199215 -0.00553326 -0.025964 0.0262889 -0.00328628 -0.0201604 
0.0305798 3.38217e-05 -0.0136525 -0.0640312 0.0339016 -0.0248607 -0.0605815 0.0255174 -0.0318199 
-0.0538627 0.0180158 -0.037825 -0.0469727 0.0106251 -0.0436823 -0.0374563 0.00493402 -0.0472733 
-0.0278015 -0.000497653 -0.0504965 -0.016928 -0.00364636 -0.0504842 -0.0061436 -0.00640627 -0.049932 
0.00410704 -0.00683335 -0.0461411 0.013931 -0.00684725 -0.0418486 0.0218585 -0.0050248 -0.0353261 
0.0290911 -0.00288102 -0.0285647 0.0339233 0.000372814 -0.0209774 -0.0723689 0.0381911 -0.0297002 
-0.0686646 0.02927 -0.0380173 -0.0612452 0.0212811 -0.0453459 -0.0536278 0.0134072 -0.0525055 
-0.042974 0.00729559 -0.0570725 -0.0321569 0.00145348 -0.0612046 -0.0199031 -0.00201744 -0.0615089 
-0.00774941 -0.00508439 -0.0611682 0.00380438 -0.0057275 -0.0569572 0.0148686 -0.0059434 -0.0521515 
0.0237571 -0.00426065 -0.0447028 0.0318571 -0.00224683 -0.0369801 0.0372332 0.000910658 -0.0283112 
-0.0815364 0.0446136 -0.0337286 -0.0775121 0.0354241 -0.0435619 -0.0693484 0.0272473 -0.0523919 
-0.0609603 0.0191846 -0.0610311 -0.0491309 0.0128733 -0.0667436 -0.0371132 0.00682393 -0.0719463 
-0.0234381 0.00307965 -0.0726627 -0.00987509 -0.000273622 -0.0726152 0.0030156 -0.00128079 -0.0679844 
0.0153519 -0.00187285 -0.0626582 0.0252243 -0.000619973 -0.0542423 0.0342162 0.000962867 -0.0455212 
0.0401668 0.00368558 -0.0357462 -0.090733 0.0512411 -0.037469 -0.0863673 0.0418309 -0.0488067 
-0.0774566 0.0335201 -0.0591212 -0.0682961 0.025322 -0.0692235 -0.0553067 0.0188525 -0.0760712 
-0.042105 0.0126344 -0.0823359 -0.0270341 0.00862877 -0.0834695 -0.0120871 0.00499638 -0.0837228 
0.00211682 0.00360326 -0.078694 0.0157037 0.00260899 -0.0728719 0.0265482 0.00338745 -0.0635232 
0.0364239 0.00449357 -0.053839 0.042953 0.00673165 -0.0429954 -0.100139 0.0593374 -0.0391458 
-0.0952784 0.0500482 -0.051903 -0.0856006 0.0419906 -0.0635806 -0.0756558 0.0340387 -0.0750276 
-0.0616178 0.0277088 -0.0829377 -0.0473507 0.0215982 -0.0902026 -0.0310674 0.0174176 -0.0917893 
-0.0149179 0.0135577 -0.0923968 0.000429653 0.0116218 -0.0871287 0.0151133 0.0100386 -0.0809853 
0.0268461 0.0100234 -0.0709516 0.037547 0.010325 -0.0605566 0.0446834 0.011721 -0.0489135 
-0.109462 0.0674165 -0.0402438 -0.10406 0.058309 -0.0543575 -0.0936156 0.0505672 -0.0673121 
-0.0828898 0.0429232 -0.0800186 -0.0678523 0.0367804 -0.0889224 -0.0525718 0.0308218 -0.0971249 
-0.0351535 0.0264837 -0.0991572 -0.0178776 0.0224091 -0.100122 -0.00145589 0.019915 -0.0946797 
0.0142617 0.0177237 -0.0882884 0.0268495 0.0168784 -0.0776779 0.0383516 0.0163381 -0.0666804 
0.0461034 0.0168519 -0.0543457 -0.118361 0.0754073 -0.0383753 -0.11218 0.066792 -0.0535227 
-0.100969 0.0596872 -0.0673124 -0.089479 0.0526677 -0.0808422 -0.0736941 0.0469554 -0.0903873 
-0.0576671 0.0413763 -0.0992071 -0.0395099 0.0369706 -0.101646 -0.0214979 0.0327469 -0.102982 
-0.00435803 0.0296157 -0.0977017 0.0120715 0.0267176 -0.0914387 0.025344 0.0248557 -0.080806 
0.0375244 0.0232826 -0.0697603 0.045932 0.0227073 -0.0572875 -0.127033 0.0828716 -0.0357727 
-0.12001 0.0748099 -0.0518521 -0.108046 0.0683821 -0.0663399 -0.0958074 0.0620258 -0.0805577 
-0.0793575 0.0567679 -0.0906334 -0.0626703 0.0515916 -0.0999696 -0.0438953 0.0471343 -0.102798 
-0.0252666 0.0427774 -0.104504 -0.00751533 0.0390227 -0.0994826 0.00952975 0.0354311 -0.0934555 
0.0234362 0.0325644 -0.0829598 0.0362579 0.02997 -0.0720243 0.0453327 0.0283163 -0.0595692 
-0.134816 0.0882828 -0.0303071 -0.126716 0.0810135 -0.0469216 -0.114044 0.0754183 -0.0615735 
-0.101119 0.0698772 -0.0759514 -0.0843251 0.065167 -0.0861266 -0.0673142 0.0604838 -0.0955852 
-0.0483945 0.0560382 -0.0987378 -0.0296138 0.0516098 -0.100813 -0.0116677 0.0472844 -0.0964233 
0.00561649 0.0430509 -0.0910514 0.0199592 0.0392255 -0.0813138 0.0332789 0.0356549 -0.0711064 
0.0430646 0.0329643 -0.0592761 -0.142191 0.0925584 -0.0243056 -0.13299 0.0861537 -0.0413558 
-0.119655 0.0814032 -0.0560566 -0.106093 0.0766884 -0.0704814 -0.0890578 0.0725194 -0.0806734 
-0.0718282 0.0683248 -0.0901795 -0.0528921 0.0639038 -0.0936497 -0.0340852 0.0594215 -0.0960985 
-0.0160537 0.0545714 -0.0924195 0.00137047 0.0497456 -0.0877907 0.0160961 0.0450278 -0.0789411 
0.0298749 0.0405478 -0.0695918 0.0403828 0.0368892 -0.0585163 -0.0452866 0.0214972 -0.0127345 
-0.0422814 0.0132161 -0.0163838 -0.0368904 0.00579248 -0.0192223 -0.0313797 -0.00151188 -0.0219611 
-0.0240362 -0.00698754 -0.0231695 -0.016605 -0.0121775 -0.0241517 -0.00840258 -0.0148534 -0.0231428 
-0.000281746 -0.0171005 -0.0218149 0.00734966 -0.0167747 -0.0185729 0.0146486 -0.0159999 -0.0150387 
0.02047 -0.0132293 -0.010206 0.0257461 -0.0101298 -0.00524452 0.0291391 -0.005894 0.000161672 
-0.0533525 0.0228678 -0.0183449 -0.050128 0.0141661 -0.0232006 -0.0440164 0.00633223 -0.0272074 
-0.0377552 -0.00137808 -0.0310936 -0.0292 -0.00719354 -0.0331312 -0.0205297 -0.0127092 -0.034879 
-0.0108467 -0.0155872 -0.0340763 -0.00125824 -0.0180139 -0.0328562 0.00776316 -0.0177338 -0.0291312 
0.0163801 -0.0169847 -0.0250262 0.0231993 -0.0141517 -0.0192323 0.0293639 -0.0109808 -0.0132768 
0.0332672 -0.00664294 -0.00676332 -0.0614845 0.0243553 -0.0239782 -0.058041 0.0152219 -0.0300565 
-0.0512056 0.00696738 -0.0352504 -0.0441901 -0.00115915 -0.0403029 -0.0344147 -0.00732381 -0.043186 
-0.0244965 -0.0131745 -0.0457146 -0.0133209 -0.016262 -0.0451245 -0.00225301 -0.0188757 -0.0440168 
0.0081692 -0.0186466 -0.0398028 0.018114 -0.0179286 -0.0351197 0.0259371 -0.0150374 -0.0283518 
0.0329952 -0.0117994 -0.0213897 0.0374106 -0.0073636 -0.0137564 -0.0711711 0.0285888 -0.0301478 
-0.0675142 0.0187611 -0.0378292 -0.0598772 0.00984385 -0.0446556 -0.0520223 0.00106019 -0.0513158 
-0.0408271 -0.00567456 -0.0554273 -0.0294527 -0.0120767 -0.0590957 -0.0165024 -0.0155516 -0.0588659 
-0.0036769 -0.0185229 -0.057977 0.00839978 -0.0184731 -0.0531344 0.0199056 -0.0179094 -0.0477043 
0.0288743 -0.015062 -0.039663 0.0369445 -0.0118576 -0.031396 0.0419109 -0.00741981 -0.022349 
-0.080947 0.0330721 -0.0362596 -0.0770715 0.0225837 -0.045563 -0.0686294 0.0130415 -0.0540465 
-0.0599314 0.00363814 -0.062339 -0.0473108 -0.00363837 -0.0677033 -0.0344746 -0.0105658 -0.0725347 
-0.0197416 -0.0144219 -0.0726766 -0.00515088 -0.0177484 -0.0720159 0.00858673 -0.017897 -0.066539 
0.0216593 -0.0175102 -0.060355 0.0317763 -0.0147437 -0.0510279 0.0408611 -0.0116111 -0.0414444 
0.0463803 -0.00721344 -0.0309752 -0.0917272 0.0403647 -0.0417216 -0.0875756 0.0295928 -0.0528598 
-0.0782881 0.019853 -0.0632769 -0.0687055 0.0102504 -0.0734783 -0.0545978 0.00275096 -0.0803703 