# vtk DataFile Version 2.0
vtk output
ASCII
DATASET RECTILINEAR_GRID
DIMENSIONS 13 13 13
X_COORDINATES 13 float
0 0.208333 0.416667 0.625 0.833333 1.04167 1.25 1.45833 1.66667 
1.875 2.08333 2.29167 2.5 
Y_COORDINATES 13 float
-2.5 -2.29167 -2.08333 -1.875 -1.66667 -1.45833 -1.25 -1.04167 -0.833333 
-0.625 -0.416667 -0.208333 0 
Z_COORDINATES 13 float
-10 -9.79167 -9.58333 -9.375 -9.16667 -8.95833 -8.75 -8.54167 -8.33333 
-8.125 -7.91667 -7.70833 -7.5 
POINT_DATA 2197
VECTORS grad float
-0.0413173 0.0680763 0.0536574 -0.0412234 0.0666481 0.0521786 -0.0408518 0.0649996 0.0509141 
-0.0404583 0.0633447 0.0496635 -0.0397284 0.0615924 0.0486268 -0.0389652 0.0598421 0.047614 
-0.0379087 0.0581092 0.0468126 -0.0368198 0.0563892 0.0460442 -0.0355368 0.0547466 0.0454746 
-0.0342345 0.053123 0.0449445 -0.032846 0.0515833 0.0445899 -0.0314581 0.0500609 0.0442775 
-0.0300722 0.0485982 0.0441109 -0.0427506 0.0708936 0.0555409 -0.0427717 0.0692961 0.0541105 
-0.0424838 0.067387 0.0528974 -0.0421702 0.0654703 0.0516983 -0.0414641 0.0634374 0.0507134 
-0.0407196 0.0614102 0.0497524 -0.0396368 0.0594336 0.0490014 -0.0385185 0.057479 0.0482824 
-0.0371862 0.0556558 0.0477562 -0.0358348 0.0538635 0.0472669 -0.0343989 0.0522079 0.0469417 
-0.0329671 0.0505818 0.0466539 -0.0315498 0.0490572 0.0464954 -0.0444553 0.0742114 0.0578947 
-0.0447113 0.0723736 0.0564868 -0.0445622 0.0700815 0.0552899 -0.0443797 0.0677812 0.0541071 
-0.0436858 0.0653536 0.0531416 -0.0429442 0.0629393 0.0522008 -0.041784 0.0606425 0.0514771 
-0.0405833 0.058382 0.0507861 -0.0391397 0.0563395 0.0502914 -0.0376787 0.0543444 0.0498326 
-0.0361402 0.0525601 0.0495337 -0.0346124 0.0508205 0.049269 -0.0331219 0.0492352 0.0491221 
-0.0462387 0.0776741 0.0603846 -0.0467641 0.0755754 0.0589918 -0.0467699 0.072865 0.0578008 
-0.0467333 0.0701457 0.0566242 -0.0460481 0.0672903 0.0556686 -0.045305 0.064457 0.0547389 
-0.0440524 0.0618178 0.0540359 -0.0427541 0.0592309 0.0533667 -0.0411813 0.0569578 0.0528999 
-0.0395931 0.0547501 0.0524686 -0.037936 0.0528334 0.0521952 -0.0362972 0.0509775 0.0519531 
-0.0347212 0.0493319 0.051819 -0.0484627 0.0817918 0.0636127 -0.049489 0.0792783 0.0621784 
-0.0497304 0.0759287 0.0609141 -0.0499125 0.0725728 0.0596651 -0.0491863 0.0691205 0.0586508 
-0.048386 0.0657075 0.0576659 -0.0469341 0.0626402 0.0569392 -0.0454314 0.0596499 0.0562505 
-0.0436233 0.0571216 0.055789 -0.0418063 0.0546826 0.0553653 -0.0399497 0.0526402 0.0551096 
-0.0381249 0.0506772 0.0548843 -0.0364097 0.0489886 0.0547637 -0.0507859 0.0860569 0.067007 
-0.052365 0.0830939 0.0655185 -0.0528602 0.0790554 0.064163 -0.0532775 0.0750139 0.0628238 
-0.052499 0.0709267 0.0617354 -0.051629 0.066898 0.0606804 -0.0499539 0.0633832 0.0599201 
-0.0482227 0.0599721 0.0592024 -0.0461553 0.0571832 0.0587412 -0.0440867 0.0545087 0.0583206 
-0.0420124 0.0523421 0.0580809 -0.0399848 0.0502741 0.057871 -0.0381183 0.0485465 0.0577643 
-0.0538955 0.0908212 0.0716815 -0.0564421 0.087114 0.069991 -0.0572695 0.0820518 0.068354 
-0.0579859 0.0769994 0.0667373 -0.0570005 0.0720977 0.0654317 -0.0559007 0.0672883 0.0641701 
-0.0537937 0.0632908 0.0632964 -0.0516316 0.0594338 0.0624766 -0.0491394 0.0564198 0.0619806 
-0.0466646 0.0535484 0.0615323 -0.0442677 0.051311 0.0612968 -0.0419429 0.0491899 0.0610928 
-0.0398673 0.047471 0.0609981 -0.0571361 0.0956687 0.0765694 -0.0607193 0.0911681 0.0746523 
-0.061892 0.0850264 0.0727021 -0.0629183 0.0789089 0.0707766 -0.0617003 0.0731628 0.0692299 
-0.0603439 0.0675453 0.067739 -0.0577701 0.0630592 0.0667387 -0.0551434 0.0587521 0.0658046 
-0.0521987 0.0555188 0.0652678 -0.0492921 0.052457 0.0647868 -0.0465551 0.0501577 0.0645534 
-0.0439174 0.0479923 0.0643538 -0.041623 0.0462899 0.0642708 -0.0617476 0.0994283 0.0837503 
-0.0670237 0.0937712 0.0812031 -0.0685108 0.0863044 0.0785001 -0.0697954 0.0788933 0.0758369 
-0.0679761 0.0723366 0.0737825 -0.0659972 0.0659582 0.0718108 -0.062614 0.0611489 0.0705666 
-0.0591988 0.0565578 0.0694119 -0.0555921 0.0532762 0.0687943 -0.0520638 0.0501877 0.0682457 
-0.0488848 0.0479578 0.0680046 -0.0458462 0.0458701 0.0678014 -0.0432927 0.0442735 0.067729 
-0.0665149 0.103064 0.0911918 -0.0735584 0.0962095 0.0879687 -0.0753564 0.0873896 0.0844629 
-0.0768935 0.0786588 0.0810131 -0.0744311 0.0712954 0.0784208 -0.0717881 0.0641616 0.0759397 
-0.0675564 0.0590478 0.0744383 -0.063316 0.0541917 0.073051 -0.0590233 0.0508811 0.0723478 
-0.0548519 0.0477845 0.0717279 -0.0512193 0.0456391 0.0714779 -0.0477697 0.0436429 0.0712701 
-0.0449526 0.0421622 0.0712083 -0.0730908 0.100247 0.102139 -0.082652 0.0924894 0.097295 
-0.0844291 0.0829873 0.0921791 -0.0858706 0.0736124 0.0871631 -0.0821659 0.0661876 0.0836784 
-0.0782829 0.0590255 0.0803595 -0.072831 0.054176 0.078498 -0.0674259 0.0495943 0.0767877 
-0.0623014 0.0466195 0.0759842 -0.0573622 0.0438524 0.075282 -0.0532465 0.0420088 0.0750293 
-0.0493665 0.0403009 0.0748231 -0.0463006 0.0390622 0.0747771 -0.0797846 0.097009 0.113316 
-0.0919124 0.0883677 0.106788 -0.0936471 0.0782271 0.10001 -0.0949702 0.068252 0.0933765 
-0.0899842 0.0608144 0.0889765 -0.0848237 0.0536717 0.0847981 -0.0781273 0.0491234 0.0825699 
-0.0715353 0.0448513 0.0805307 -0.0655694 0.0422361 0.079626 -0.0598543 0.0398206 0.0788407 
-0.0552537 0.0382929 0.0785858 -0.050942 0.0368863 0.0783815 -0.0476282 0.0358976 0.0783517 
-0.0866655 0.07866 0.126382 -0.101416 0.0714683 0.117096 -0.102597 0.063257 0.108084 
-0.103303 0.0551972 0.0992939 -0.09674 0.0494618 0.0939134 -0.090039 0.0439741 0.0888238 
-0.0821213 0.0406664 0.0862941 -0.0743819 0.0375778 0.0839913 -0.0677126 0.0358039 0.0830493 
-0.0613596 0.0341785 0.0822405 -0.0564119 0.0332129 0.0820232 -0.0517995 0.0323272 0.0818557 
-0.0483453 0.0317174 0.0818603 -0.042802 0.0699325 0.0514879 -0.042595 0.068553 0.0500756 
-0.0421094 0.0669549 0.0488878 -0.0416017 0.0653505 0.0477143 -0.0407537 0.063649 0.0467604 
-0.0398722 0.0619494 0.0458306 -0.0386964 0.060266 0.0451131 -0.0374891 0.0585945 0.0444283 
-0.036092 0.0569947 0.0439396 -0.0346777 0.0554112 0.0434893 -0.0331864 0.0539 0.0432097 
-0.031699 0.0524012 0.0429704 -0.0302251 0.0509452 0.0428706 -0.0441893 0.0730198 0.0531483 
-0.0440934 0.071457 0.0518077 -0.0436906 0.0695806 0.0506985 -0.043262 0.0676967 0.0496037 
-0.0424379 0.0656984 0.0487296 -0.0415756 0.0637061 0.0478793 -0.0403758 0.0617676 0.0472378 
-0.0391416 0.0598509 0.0466274 -0.0377006 0.0580648 0.0462036 -0.0362433 0.0563077 0.0458148 
-0.0347135 0.0546798 0.0455812 -0.033192 0.0530772 0.0453821 -0.031699 0.0515624 0.045302 
-0.0458714 0.0766972 0.0551982 -0.0460136 0.0748707 0.0539102 -0.0457505 0.0725791 0.0528545 
-0.0454536 0.0702796 0.0518135 -0.0446388 0.0678579 0.050997 -0.0437765 0.0654509 0.0502047 
-0.0424962 0.063173 0.0496246 -0.041177 0.0609326 0.0490753 -0.039625 0.0589173 0.0487107 
-0.0380592 0.0569489 0.0483787 -0.0364319 0.0551894 0.0481924 -0.0348204 0.0534716 0.0480359 
-0.0332634 0.0518978 0.0479823 -0.0476388 0.0805454 0.0573608 -0.0480558 0.0784319 0.0561198 
-0.0479489 0.0756856 0.0551105 -0.047799 0.0729309 0.0541161 -0.0469892 0.0700494 0.0533508 
-0.0461215 0.0671922 0.0526102 -0.0447442 0.0645505 0.0520874 -0.0433233 0.0619637 0.0515954 
-0.0416409 0.0597067 0.051288 -0.0399476 0.0575161 0.0510117 -0.0382056 0.0556207 0.050873 
-0.0364879 0.0537843 0.0507599 -0.034854 0.0521517 0.0507347 -0.0498946 0.0852335 0.0601015 
-0.0508378 0.08265 0.0588678 -0.0509711 0.0791913 0.0578495 -0.0510434 0.0757278 0.0568468 
-0.0501799 0.0721912 0.0560858 -0.049242 0.0686986 0.0553519 -0.0476491 0.0655941 0.0548574 
-0.0460083 0.0625719 0.054396 -0.04408 0.0600434 0.0541333 -0.0421489 0.0576071 0.0539017 
-0.0402053 0.0555806 0.0538087 -0.0383011 0.0536328 0.0537384 -0.0365332 0.0519573 0.053746 
-0.0522602 0.0901106 0.0629723 -0.0537863 0.0870159 0.061737 -0.0541787 0.0827869 0.0606972 
-0.0544901 0.0785574 0.059674 -0.0535598 0.0743218 0.0589065 -0.0525371 0.0701521 0.0581692 
-0.0507019 0.0665625 0.0576965 -0.0488145 0.0630848 0.0572598 -0.0466143 0.0602782 0.0570387 
-0.0444206 0.057591 0.0568495 -0.0422558 0.0554344 0.0568018 -0.0401471 0.0533769 0.0567741 
-0.0382323 0.0516621 0.0568156 -0.0555307 0.0958476 0.0668038 -0.0581044 0.091864 0.0654633 
-0.0588333 0.0864439 0.0642682 -0.0594453 0.0810397 0.0630929 -0.0582651 0.075879 0.0622201 
-0.0569693 0.0708238 0.0613849 -0.0546556 0.0666972 0.0608812 -0.0522932 0.062724 0.0604208 
-0.0496381 0.0596711 0.0602205 -0.0470116 0.0567685 0.0600556 -0.0445123 0.0545347 0.0600484 
-0.0420974 0.0524192 0.06006 -0.0399741 0.0507123 0.0601369 -0.0589519 0.101728 0.0707954 
-0.0626507 0.0967923 0.0693325 -0.063729 0.0901112 0.0679599 -0.0646519 0.0834642 0.0666104 
-0.0631914 0.0773406 0.0656157 -0.061591 0.0713652 0.0646671 -0.0587596 0.066693 0.0641235 
-0.055884 0.0622177 0.0636314 -0.0527436 0.0589236 0.0634484 -0.0496559 0.0558117 0.0633048 
-0.0468031 0.0535096 0.0633372 -0.044065 0.0513446 0.0633876 -0.0417231 0.0496535 0.0635001 
-0.0640501 0.107034 0.076465 -0.0696446 0.100592 0.0745936 -0.0710068 0.0922579 0.0727312 
-0.0721513 0.0839993 0.0709031 -0.0699597 0.0768986 0.0696001 -0.0676091 0.0700065 0.0683625 
-0.0638592 0.0649502 0.0677007 -0.0600932 0.0601365 0.0671063 -0.0562304 0.0567779 0.0669168 
-0.0524677 0.0536258 0.0667746 -0.0491495 0.0513915 0.066843 -0.0459918 0.0493031 0.0669295 
-0.0433886 0.0477187 0.0670782 -0.0693389 0.112275 0.0823254 -0.0769166 0.104263 0.0800128 
-0.0785551 0.0942318 0.0776252 -0.0799112 0.0843197 0.0752839 -0.0769373 0.0762402 0.0736514 
-0.0737857 0.0684318 0.072105 -0.0690719 0.0630098 0.0713159 -0.0643726 0.0578763 0.0706112 
-0.0597606 0.0544733 0.0704125 -0.0552984 0.0513002 0.0702695 -0.0515022 0.0491493 0.0703735 
-0.047914 0.0471518 0.0704957 -0.0450447 0.0456844 0.0706808 -0.0771063 0.110913 0.090715 
-0.0876222 0.101471 0.0872857 -0.0890538 0.090391 0.0837968 -0.09012 0.0794833 0.0803862 
-0.0855847 0.0712254 0.0781762 -0.0808861 0.0632825 0.0760916 -0.07475 0.0581107 0.075109 
-0.0686997 0.0532411 0.0742365 -0.0631646 0.0501848 0.0740243 -0.0578547 0.0473523 0.0738782 
-0.0535458 0.0455145 0.0740257 -0.049504 0.0438154 0.0741906 -0.0463853 0.0425958 0.0744157 
-0.0850354 0.10912 0.0992696 -0.0985517 0.098258 0.0946794 -0.0997448 0.0861709 0.0900516 
-0.100488 0.0743105 0.0855355 -0.0943411 0.0659266 0.082732 -0.0880467 0.0579001 0.0800941 
-0.0804584 0.0530187 0.0789137 -0.0730298 0.0484511 0.0778696 -0.0665604 0.045767 0.0776437 
-0.0603931 0.0432986 0.0774944 -0.0555692 0.0417888 0.0776858 -0.0510724 0.0404017 0.0778939 
-0.0477052 0.0394384 0.0781592 -0.0938318 0.0893607 0.10914 -0.110548 0.0800818 0.102622 
-0.11073 0.0701496 0.0964529 -0.110398 0.0604276 0.0904512 -0.102181 0.0539278 0.0870169 
-0.0938784 0.0477308 0.0837982 -0.084828 0.0441977 0.0824767 -0.0760334 0.0409143 0.0813173 
-0.068774 0.0391294 0.0811309 -0.0618948 0.0375036 0.0810277 -0.0567056 0.0365851 0.081295 
-0.0518959 0.0357445 0.0815736 -0.0483972 0.0351729 0.0818908 -0.0442761 0.0717527 0.0492199 
-0.043955 0.0704257 0.0478771 -0.0433549 0.0688825 0.0467692 -0.0427323 0.0673329 0.045676 
-0.0417658 0.0656868 0.0448084 -0.0407658 0.0640424 0.0439651 -0.0394709 0.0624126 0.0433351 
-0.0381452 0.0607937 0.0427373 -0.0366345 0.0592401 0.042333 -0.0351085 0.0577 0.0419658 
-0.0335149 0.0562199 0.0417643 -0.0319287 0.0547471 0.0416013 -0.0303677 0.0532997 0.0415711 
-0.0456137 0.0751034 0.0506478 -0.0453996 0.0735797 0.0494012 -0.044881 0.0717412 0.0484003 
-0.0443365 0.0698953 0.0474142 -0.0433944 0.0679369 0.0466556 -0.042414 0.0659849 0.0459205 
-0.0410975 0.0640893 0.0453932 -0.0397478 0.0622153 0.0448959 -0.0381989 0.0604701 0.044579 
-0.0366364 0.058752 0.0442949 -0.0350138 0.0571547 0.0441569 -0.0334035 0.0555786 0.0440502 
-0.0318359 0.0540756 0.0440519 -0.0472686 0.0791294 0.0523814 -0.047295 0.0773197 0.0512186 
-0.0469166 0.0750353 0.0503102 -0.0465042 0.0727433 0.049417 -0.0455685 0.0703344 0.0487558 
-0.0445855 0.0679414 0.0481182 -0.0431858 0.0656883 0.0476878 -0.0417491 0.0634738 0.0472861 
-0.0400899 0.0614902 0.0470571 -0.0384206 0.059553 0.0468575 -0.036706 0.0578218 0.0467885 
-0.0350122 0.0561291 0.0467449 -0.0333905 0.0545693 0.0467886 -0.0490152 0.0833509 0.0542034 
-0.0493209 0.0812292 0.0531208 -0.0490997 0.0784554 0.0523009 -0.0488349 0.0756739 0.0514964 
-0.0479006 0.0727745 0.0509293 -0.0469085 0.0699019 0.050386 -0.0454077 0.0672648 0.0500508 
-0.0438656 0.064685 0.0497434 -0.0420755 0.0624497 0.0496024 -0.0402789 0.0602814 0.0494876 
-0.0384541 0.0584113 0.0494894 -0.0366597 0.0565982 0.0495107 -0.03497 0.0549813 0.0495993 
-0.0512956 0.0885882 0.056437 -0.0521511 0.0859439 0.0554126 -0.0521741 0.0823881 0.0546505 
-0.0521344 0.0788289 0.0539046 -0.0511343 0.0752192 0.0534073 -0.0500595 0.0716582 0.0529349 
-0.0483277 0.0685255 0.0526823 -0.0465512 0.06548 0.0524578 -0.0445055 0.062958 0.0524023 
-0.0424631 0.0605307 0.052371 -0.0404354 0.0585247 0.0524477 -0.0384547 0.0565965 0.052539 
-0.0366367 0.0549371 0.0526804 -0.0536961 0.094054 0.0587632 -0.0551621 0.0908399 0.057792 
-0.0554489 0.0864361 0.0570809 -0.055652 0.0820345 0.0563869 -0.0545709 0.0776649 0.0559538 
-0.0533968 0.0733684 0.0555472 -0.0514048 0.0697151 0.0553742 -0.0493647 0.0661814 0.0552301 
-0.0470355 0.0633649 0.0552594 -0.0447206 0.0606724 0.0553113 -0.0424691 0.0585309 0.0554639 
-0.040283 0.0564888 0.0556262 -0.0383231 0.0547903 0.0558224 -0.0571139 0.100723 0.0617182 
-0.0597034 0.0964823 0.0607426 -0.0603304 0.0907281 0.0600075 -0.060835 0.0849956 0.0592916 
-0.0594629 0.0795957 0.0588695 -0.0579743 0.074314 0.0584783 -0.0554596 0.0700723 0.0583599 
-0.0529024 0.0659963 0.0582738 -0.0500903 0.0629135 0.0583818 -0.0473177 0.0599884 0.0585122 
-0.044721 0.0577641 0.0587431 -0.0422208 0.0556595 0.0589795 -0.0400541 0.0539683 0.0592355 
-0.0607013 0.107594 0.064778 -0.0644997 0.102249 0.0637884 -0.0654796 0.0950608 0.0630168 
-0.0662955 0.087916 0.0622667 -0.0645975 0.0814407 0.0618467 -0.0627584 0.075132 0.0614626 
-0.0596773 0.0702908 0.0613946 -0.0565609 0.0656634 0.0613628 -0.0532325 0.062319 0.0615483 
-0.0499714 0.0591668 0.0617566 -0.0470092 0.0568685 0.0620661 -0.0441767 0.0547099 0.0623771 
-0.0417926 0.0530339 0.0626937 -0.0662573 0.114378 0.0688776 -0.0721445 0.107194 0.0677094 
-0.0733785 0.0980397 0.0667215 -0.0743805 0.0889801 0.0657621 -0.0718272 0.081369 0.065241 
-0.0691156 0.0739954 0.0647674 -0.0650123 0.0687126 0.0647118 -0.0609083 0.0636953 0.0647009 
-0.0568007 0.0602715 0.0649574 -0.0528141 0.0570667 0.0652386 -0.0493652 0.054835 0.0656298 
-0.0460964 0.0527522 0.0660184 -0.0434499 0.0511839 0.0663979 -0.072037 0.121154 0.0730954 
-0.080113 0.112045 0.07173 -0.0815898 0.100865 0.0705052 -0.0827638 0.0898332 0.0693166 
-0.0792949 0.0810795 0.0686827 -0.0756516 0.0726366 0.0681086 -0.0704742 0.0669301 0.0680612 
-0.0653341 0.0615413 0.0680672 -0.0604173 0.0580589 0.068394 -0.0556782 0.0548214 0.0687477 
-0.0517288 0.0526722 0.0692209 -0.0480118 0.05068 0.0696873 -0.045098 0.0492298 0.07013 
-0.0809345 0.12118 0.07883 -0.0923496 0.110139 0.076871 -0.0934412 0.09756 0.0750732 
-0.0941392 0.0851977 0.0733314 -0.088804 0.0761546 0.0724472 -0.08332 0.0674763 0.0716463 
-0.0765274 0.0620073 0.0715786 -0.0698587 0.0568732 0.0715782 -0.0639326 0.0537486 0.071982 
-0.0582704 0.0508626 0.0724152 -0.0537812 0.0490375 0.07298 -0.0495898 0.0473535 0.0735319 
-0.0464272 0.0461567 0.0740398 -0.0900353 0.120767 0.0846634 -0.104865 0.107792 0.0820851 
-0.10553 0.0938552 0.0796924 -0.10571 0.0802041 0.0773761 -0.0984462 0.0709275 0.0762326 
-0.0910622 0.0620681 0.0751967 -0.0826192 0.0568798 0.0751069 -0.0743898 0.0520412 0.0750987 
-0.0674412 0.0493014 0.0755798 -0.0608448 0.046792 0.0760931 -0.0558133 0.0453068 0.07675 
-0.0511458 0.0439452 0.0773881 -0.0477357 0.0430106 0.0779612 -0.100652 0.0996532 0.0912197 
-0.119232 0.08839 0.087575 -0.118449 0.0768249 0.0843587 -0.117114 0.065526 0.081253 
-0.107309 0.0583083 0.0798423 -0.0974706 0.0514458 0.0785689 -0.087336 0.0477096 0.0785048 
-0.0775321 0.0442521 0.0785357 -0.0697121 0.0424672 0.0791364 -0.0623342 0.0408512 0.0797686 
-0.0569216 0.0399855 0.0805412 -0.0519312 0.039195 0.0812848 -0.0483997 0.0386641 0.0819283 
-0.0455013 0.072726 0.0446374 -0.0450462 0.0715412 0.0434338 -0.0443155 0.0701573 0.0424824 
-0.0435627 0.0687673 0.0415465 -0.0424707 0.067283 0.0408467 -0.0413461 0.0657993 0.0401713 
-0.0399339 0.0643199 0.0397114 -0.0384927 0.0628481 0.0392829 -0.0368769 0.0614214 0.039043 
-0.035249 0.0600019 0.0388383 -0.0335666 0.0586147 0.0387897 -0.0318958 0.0572255 0.0387758 
-0.030265 0.0558293 0.0388815 -0.0467036 0.076187 0.0456142 -0.0463418 0.0748038 0.0445558 
-0.0456872 0.073126 0.0437677 -0.0450074 0.0714412 0.0429951 -0.0439417 0.0696483 0.0424616 
-0.0428392 0.0678609 0.0419514 -0.041414 0.0661213 0.0416468 -0.0399581 0.0644001 0.0413704 
-0.0383185 0.0627888 0.0412626 -0.0366691 0.0611987 0.0411838 -0.0349766 0.059703 0.0412333 
-0.0333014 0.0582195 0.041308 -0.031686 0.0567782 0.0414698 -0.0482234 0.0803038 0.0467382 
-0.0480859 0.0786366 0.0458255 -0.0475639 0.076518 0.0452059 -0.0470091 0.0743922 0.0446022 
-0.0459503 0.0721557 0.0442435 -0.0448465 0.0699342 0.0439073 -0.0433455 0.0678449 0.0437689 
-0.041811 0.0657911 0.0436555 -0.0400745 0.0639499 0.0436921 -0.0383325 0.0621493 0.0437518 
-0.0365659 0.0605287 0.0439136 -0.0348257 0.0589379 0.0440918 -0.0331769 0.0574498 0.0443263 
-0.0498352 0.0846106 0.0479048 -0.0499597 0.0826343 0.0471379 -0.0495868 0.0800324 0.0466883 
-0.049172 0.0774234 0.0462552 -0.0481147 0.0747041 0.0460738 -0.0470026 0.0720108 0.0459141 
-0.0454078 0.0695459 0.0459449 -0.043776 0.0671355 0.0459976 -0.0419216 0.0650514 0.0461823 
-0.0400663 0.0630286 0.0463842 -0.0382071 0.0612784 0.0466625 -0.0363844 0.0595765 0.0469484 
-0.034688 0.0580411 0.0472605 -0.0519721 0.0898985 0.0491694 -0.0526258 0.087409 0.0485589 
-0.0524871 0.0840375 0.0482957 -0.0522882 0.0806632 0.0480494 -0.0511647 0.0772463 0.0480636 
-0.0499703 0.0738772 0.0480985 -0.0481519 0.0709287 0.0483163 -0.0462938 0.0680643 0.0485529 
-0.0441973 0.0657041 0.0489024 -0.0421105 0.0634328 0.0492631 -0.0400663 0.0615559 0.0496737 
-0.0380759 0.059748 0.0500831 -0.0362714 0.0581784 0.0504883 -0.0542272 0.0954073 0.050456 
-0.0554701 0.0923585 0.0500045 -0.055585 0.0881529 0.0499312 -0.055619 0.0839499 0.0498755 
-0.054414 0.0797871 0.0500891 -0.0531206 0.0756964 0.0503227 -0.0510494 0.0722399 0.0507316 
-0.0489359 0.0688995 0.0511561 -0.0465696 0.0662559 0.0516742 -0.0442245 0.06373 0.0521975 
-0.0419745 0.061727 0.0527439 -0.0397972 0.0598143 0.0532803 -0.0378711 0.0582135 0.0537822 
-0.0574761 0.102062 0.0517494 -0.0598162 0.0980075 0.0514853 -0.0602599 0.092476 0.0516372 
-0.060585 0.0869664 0.0518072 -0.05909 0.0817943 0.0522536 -0.0574839 0.076739 0.0527186 
-0.0548998 0.072711 0.0533462 -0.05228 0.0688445 0.0539854 -0.0494466 0.0659473 0.0546941 
-0.0466607 0.0632008 0.0554009 -0.0440857 0.0611239 0.0560997 -0.041615 0.0591568 0.0567786 
-0.0395045 0.0575688 0.0573888 -0.0608907 0.108907 0.053044 -0.0644126 0.103773 0.052972 
-0.0651978 0.0968336 0.053355 -0.0658235 0.0899378 0.0537566 -0.0640039 0.0837126 0.0544413 
-0.0620495 0.0776522 0.0551429 -0.058909 0.073042 0.055994 -0.055741 0.068641 0.0568524 
-0.0524079 0.0654952 0.0577553 -0.0491506 0.0625338 0.0586492 -0.0462308 0.0603918 0.059503 
-0.0434489 0.0583787 0.0603269 -0.0411435 0.0568107 0.0610474 -0.0662254 0.115581 0.0541927 
-0.0717997 0.108651 0.0543739 -0.0728296 0.0997878 0.055055 -0.0736332 0.0910184 0.0557542 
-0.0709658 0.0836871 0.0567306 -0.0681474 0.0765904 0.0577209 -0.0640007 0.0715591 0.0588341 
-0.059862 0.0667879 0.0599489 -0.0557711 0.0635767 0.0610727 -0.0518107 0.0605755 0.0621782 
-0.0484296 0.0585079 0.0632029 -0.0452372 0.056577 0.0641852 -0.0426965 0.0551183 0.0650216 
-0.0717781 0.122236 0.0553248 -0.079504 0.113428 0.0557661 -0.0807677 0.102582 0.0567529 
-0.0817351 0.0918842 0.0577574 -0.0781605 0.0834406 0.0590314 -0.0744195 0.0753042 0.0603163 
-0.0692154 0.0698701 0.0616961 -0.0640579 0.0647472 0.0630714 -0.0591801 0.0614915 0.0644191 
-0.0544901 0.0584706 0.0657392 -0.0506345 0.0564931 0.0669364 -0.0470203 0.0546589 0.0680788 
-0.0442397 0.0533197 0.0690315 -0.0803602 0.122085 0.0561191 -0.0913715 0.111408 0.0569347 
-0.0922533 0.0992139 0.0583333 -0.0927495 0.087233 0.0597467 -0.0873317 0.078529 0.0613874 
-0.0817736 0.0701848 0.0630332 -0.0749803 0.0650075 0.0647243 -0.0683206 0.0601577 0.0664022 
-0.0624626 0.0572726 0.0680021 -0.0568794 0.0546148 0.0695621 -0.0525171 0.0529672 0.0709449 
-0.0484616 0.0514453 0.0722568 -0.0454663 0.0503575 0.0733239 -0.0891399 0.121491 0.0568914 
-0.103511 0.108946 0.0580887 -0.10397 0.0954433 0.0599059 -0.103954 0.0822221 0.061735 
-0.0966319 0.0733131 0.0637469 -0.0891983 0.0648155 0.0657581 -0.080781 0.0599379 0.0677632 
-0.0725876 0.0554019 0.0697466 -0.0657369 0.0529146 0.0716005 -0.0592498 0.0506449 0.0734022 
-0.0543786 0.0493428 0.0749714 -0.0498807 0.0481471 0.0764535 -0.0466721 0.0473194 0.0776348 
-0.0993365 0.100349 0.0573543 -0.11739 0.0895229 0.059055 -0.116429 0.078391 0.0613751 
-0.114926 0.0675216 0.0637018 -0.105102 0.0606758 0.0661309 -0.0952517 0.0541799 0.0685522 
-0.0851751 0.0507638 0.0709045 -0.0754399 0.0476181 0.0732252 -0.0677533 0.0460946 0.0753565 
-0.0605213 0.0447261 0.0774204 -0.0553098 0.0440469 0.0791843 -0.0505301 0.043424 0.080841 
-0.047242 0.0429956 0.0821272 -0.046703 0.0736256 0.040027 -0.046113 0.0725913 0.0389627 
-0.0452507 0.0713764 0.0381673 -0.0443667 0.0701554 0.037388 -0.0431488 0.0688426 0.0368553 
-0.0418991 0.0675289 0.0363472 -0.0403697 0.0662088 0.0360567 -0.0388131 0.0648926 0.0357969 
-0.037093 0.0636002 0.0357214 -0.0353638 0.0623084 0.0356789 -0.0335938 0.0610199 0.0357834 
-0.0318399 0.0597196 0.0359187 -0.030141 0.0583785 0.0361603 -0.0477619 0.0771844 0.0405557 
-0.0472509 0.075951 0.0396857 -0.0464589 0.0744449 0.0391096 -0.0456426 0.072932 0.0385499 
-0.0444528 0.0713158 0.0382406 -0.0432281 0.069704 0.0379544 -0.0416947 0.0681304 0.037872 
-0.0401334 0.0665718 0.0378159 -0.0384044 0.0651028 0.0379171 -0.0366697 0.0636487 0.0380432 
-0.0349094 0.062261 0.0382805 -0.0331715 0.0608762 0.0385369 -0.0315109 0.0595011 0.0388588 
-0.049137 0.0813711 0.0410763 -0.0488323 0.0798575 0.0404134 -0.0481648 0.0779185 0.0400813 
-0.0474659 0.0759727 0.0397659 -0.0462839 0.0739224 0.0397082 -0.0450593 0.0718861 0.039672 
-0.0434586 0.0699727 0.0398245 -0.0418278 0.0680915 0.0399984 -0.0400164 0.0664025 0.0403003 
-0.0382043 0.0647478 0.040619 -0.0363889 0.0632453 0.0410118 -0.0346056 0.0617634 0.0414119 
-0.0329332 0.0603522 0.0418376 -0.0506036 0.0857395 0.0415944 -0.0505422 0.0839222 0.0411425 
-0.0500149 0.0815093 0.0410614 -0.0494476 0.0790897 0.0409976 -0.0482676 0.0765675 0.0411998 
-0.0470359 0.0740702 0.0414216 -0.0453495 0.0717921 0.0418167 -0.0436305 0.069565 0.0422282 
-0.0417155 0.0676435 0.0427379 -0.0398051 0.0657771 0.0432559 -0.0379158 0.0641553 0.0438107 
-0.0360692 0.0625725 0.0443613 -0.0343706 0.0611247 0.0448975 -0.0525824 0.0910379 0.0419042 
-0.053026 0.0887215 0.0417059 -0.052722 0.0855579 0.0419375 -0.0523604 0.0823921 0.042187 
-0.0511146 0.0791906 0.0427087 -0.049802 0.0760356 0.0432471 -0.0479013 0.0732894 0.0439327 
-0.0459661 0.0706235 0.044628 -0.0438243 0.0684388 0.0453813 -0.0416986 0.0663361 0.0461329 
-0.0396437 0.0645981 0.0468772 -0.0376493 0.0629196 0.0476047 -0.0358641 0.0614466 0.0482742 
-0.0546764 0.0965454 0.042167 -0.0556839 0.0936859 0.0422319 -0.055622 0.0897096 0.0427903 
-0.0554826 0.0857362 0.0433668 -0.054156 0.0818088 0.0442216 -0.0527459 0.0779518 0.0450898 
-0.0506017 0.0747143 0.0460765 -0.0484215 0.0715886 0.0470659 -0.0460254 0.0691337 0.0480709 
-0.0436578 0.0667893 0.049064 -0.0414167 0.0649358 0.0500039 -0.0392555 0.0631627 0.0509142 
-0.0373702 0.0616671 0.0517223 -0.0577299 0.103109 0.0418328 -0.0598001 0.0992787 0.0422726 
-0.0600544 0.0940157 0.0433 -0.0601945 0.0887745 0.0443445 -0.0585823 0.0838692 0.0456495 
-0.0568649 0.0790781 0.0469608 -0.0542219 0.0752914 0.0483281 -0.0515502 0.071661 0.0496867 
-0.0487068 0.068968 0.0509931 -0.0459185 0.0664175 0.0522736 -0.0433753 0.0645004 0.0534396 
-0.0409437 0.062682 0.0545604 -0.038898 0.061205 0.0555254 -0.0609433 0.109849 0.0413991 
-0.0641592 0.104976 0.0422324 -0.0647422 0.0983475 0.0437526 -0.0651713 0.0917618 0.0452884 
-0.0632394 0.0858366 0.0470632 -0.0611798 0.0800727 0.0488367 -0.0579953 0.0757272 0.0505976 
-0.0547911 0.0715846 0.0523379 -0.0514682 0.0686588 0.0539539 -0.0482295 0.0659082 0.0555297 
-0.0453647 0.0639361 0.0569267 -0.0426455 0.0620808 0.0582627 -0.0404294 0.0606292 0.0593877 
-0.0660012 0.116289 0.0396775 -0.071215 0.109693 0.0411819 -0.0720348 0.10121 0.0434996 
-0.0726353 0.0928195 0.0458254 -0.0698736 0.085833 0.0482751 -0.0669687 0.0790758 0.0507063 
-0.0628036 0.0743363 0.0529747 -0.0586546 0.069849 0.0552026 -0.0546021 0.0668744 0.0571874 
-0.0506883 0.0640991 0.0591119 -0.0473917 0.0622098 0.0607683 -0.0442914 0.0604437 0.0623432 
-0.0418694 0.0591031 0.0636368 -0.0712688 0.122695 0.0378096 -0.0785773 0.114298 0.0400167 
-0.0796233 0.103906 0.0431665 -0.0803819 0.0936579 0.0463161 -0.0767324 0.0856054 0.049464 
-0.0729251 0.0778526 0.0525752 -0.0677295 0.0727379 0.055364 -0.0625889 0.0679249 0.0580915 
-0.0577782 0.0649223 0.0604519 -0.053164 0.0621423 0.0627312 -0.049423 0.0603515 0.0646501 
-0.0459309 0.0586889 0.0664666 -0.043299 0.0574689 0.0679298 -0.0794215 0.122252 0.0338383 
-0.0899259 0.112092 0.037347 -0.0906065 0.100431 0.0418569 -0.0909122 0.0889772 0.0463427 
-0.0854683 0.0807041 0.0504561 -0.079892 0.0727817 0.0544993 -0.0731505 0.0679458 0.0579236 
-0.0665504 0.0634268 0.0612567 -0.0607983 0.0608082 0.0640423 -0.0553296 0.0584033 0.0667199 
-0.05112 0.0569478 0.0689176 -0.0472247 0.0556009 0.0709871 -0.0444148 0.0546297 0.0726135 
-0.0877623 0.121362 0.0297298 -0.101534 0.109442 0.0345791 -0.101811 0.0965529 0.0404838 
-0.101624 0.0839366 0.0463389 -0.0943267 0.075498 0.0514355 -0.0869248 0.0674598 0.056427 
-0.0786038 0.0629455 0.0604944 -0.0705137 0.0587608 0.0644399 -0.0638083 0.0565532 0.0676539 
-0.057475 0.0545481 0.0707326 -0.0527953 0.0534432 0.0732103 -0.0484958 0.052426 0.0755335 
-0.0455101 0.0517119 0.0773228 -0.0973678 0.100303 0.0243632 -0.114707 0.0900973 0.0312069 
-0.113624 0.0795611 0.0388839 -0.112012 0.0692791 0.046469 -0.102289 0.0628946 0.0526452 
-0.0925459 0.0568503 0.0586737 -0.0826186 0.0537998 0.0634034 -0.0730386 0.0510082 0.0679786 
-0.0655427 0.0497697 0.0716263 -0.05851 0.0486705 0.0751094 -0.0535361 0.0481899 0.0778604 
-0.0490007 0.0477451 0.0804268 -0.0459805 0.0474245 0.0823551 -0.0476413 0.0736972 0.0351033 
-0.0469051 0.0729076 0.034179 -0.0459 0.0719682 0.0335333 -0.0448739 0.0710231 0.0329042 
-0.0435243 0.0699893 0.0325302 -0.0421445 0.0689526 0.0321814 -0.0404992 0.0678903 0.032054 
-0.0388294 0.0668262 0.0319573 -0.0370123 0.0657511 0.0320436 -0.0351903 0.0646666 0.0321617 
-0.0333462 0.0635409 0.0324202 -0.0315239 0.0623891 0.0327058 -0.0297771 0.0611471 0.0330848 
-0.0484661 0.077213 0.0352177 -0.0477872 0.0762336 0.0345373 -0.0468429 0.0750221 0.0341657 
-0.0458759 0.0738042 0.0338111 -0.0445582 0.0724893 0.0337161 -0.0432082 0.0711764 0.0336444 
-0.0415738 0.0698819 0.0337772 -0.0399153 0.0685962 0.0339349 -0.0381128 0.0673636 0.0342429 
-0.0363099 0.0661357 0.0345727 -0.0345049 0.0649287 0.0349995 -0.0327289 0.0637105 0.0354392 
-0.0310531 0.0624532 0.0359233 -0.0495862 0.0812326 0.035203 -0.0490795 0.0799988 0.0347882 
-0.0482448 0.0783946 0.0347292 -0.0473812 0.0767839 0.0346878 -0.0460752 0.0750755 0.0349147 
-0.0447307 0.073378 0.0351625 -0.0430467 0.0717773 0.0355942 -0.0413377 0.0702015 0.0360447 
-0.0394791 0.068775 0.0366075 -0.0376259 0.0673716 0.0371818 -0.0357965 0.0660709 0.037807 
-0.0340061 0.0647761 0.0384309 -0.0323509 0.0635018 0.0390504 -0.0507917 0.085398 0.035151 
-0.0504906 0.0838911 0.0350079 -0.0497794 0.0818593 0.0352728 -0.0490322 0.0798212 0.0355558 
-0.0477321 0.0776867 0.0361169 -0.046386 0.0755732 0.0366964 -0.0446349 0.0736449 0.0374385 
-0.0428575 0.0717591 0.0381927 -0.0409223 0.0701282 0.0390201 -0.0389987 0.0685401 0.0398483 
-0.0371265 0.067142 0.0406804 -0.0353043 0.0657678 0.0414972 -0.0336549 0.0644759 0.0422609 
-0.0524472 0.0902527 0.0346661 -0.052588 0.0883167 0.0348593 -0.0520766 0.0856281 0.035542 
-0.0515136 0.0829368 0.0362433 -0.0501591 0.080204 0.037229 -0.0487452 0.0775113 0.0382286 
-0.0468097 0.0751719 0.0393517 -0.0448472 0.0729014 0.0404777 -0.0427219 0.0710444 0.0416208 
-0.0406195 0.0692548 0.0427518 -0.0386188 0.0677648 0.0438285 -0.0366854 0.0663175 0.0448741 
-0.0349846 0.0650176 0.0458124 -0.0542041 0.0952624 0.0340839 -0.0548397 0.0928623 0.0346278 
-0.0545454 0.0894653 0.0357496 -0.054182 0.08607 0.0368903 -0.0527593 0.0827002 0.0383208 
-0.0512628 0.0793917 0.0397604 -0.0491166 0.0766224 0.0412805 -0.0469425 0.0739504 0.0427936 
-0.0446016 0.0718623 0.044264 -0.042296 0.0698675 0.0457085 -0.0401476 0.0682868 0.0470382 
-0.0380852 0.0667678 0.0483208 -0.0363199 0.065462 0.0494405 -0.0567629 0.100887 0.0325037 
-0.0583345 0.0976922 0.033562 -0.0583296 0.0932137 0.0353352 -0.058223 0.0887522 0.0371254 
-0.0565569 0.0845516 0.0391766 -0.0547975 0.0804498 0.0412261 -0.0522156 0.0772173 0.0432609 
-0.0496129 0.074121 0.0452721 -0.0468848 0.0718416 0.0471416 -0.0442171 0.0696833 0.0489661 
-0.0418179 0.0680632 0.050591 -0.0395347 0.0665205 0.0521488 -0.0376522 0.0652446 0.0534744 
-0.0594554 0.106613 0.0307571 -0.0620364 0.102569 0.0323571 -0.062333 0.0969473 0.0348172 
-0.0624928 0.0913593 0.0372919 -0.0605542 0.0862956 0.0399931 -0.0585016 0.0813709 0.0426807 
-0.0554467 0.0776697 0.0452498 -0.0523791 0.0741453 0.0477777 -0.0492352 0.0716811 0.0500583 
-0.0461788 0.0693663 0.0522739 -0.0435117 0.0677154 0.054201 -0.0409924 0.0661568 0.0560403 
-0.0389839 0.0649169 0.057576 -0.0636146 0.111432 0.0270728 -0.0679321 0.106064 0.0296066 
-0.0684722 0.0989712 0.0331941 -0.0688179 0.091951 0.0367855 -0.0661842 0.0860414 0.0404376 