# vtk DataFile Version 2.0
vtk output
ASCII
DATASET RECTILINEAR_GRID
DIMENSIONS 13 13 13
X_COORDINATES 13 float
5 5.20833 5.41667 5.625 5.83333 6.04167 6.25 6.45833 6.66667 
6.875 7.08333 7.29167 7.5 
Y_COORDINATES 13 float
7.5 7.70833 7.91667 8.125 8.33333 8.54167 8.75 8.95833 9.16667 
9.375 9.58333 9.79167 10 
Z_COORDINATES 13 float
-10 -9.79167 -9.58333 -9.375 -9.16667 -8.95833 -8.75 -8.54167 -8.33333 
-8.125 -7.91667 -7.70833 -7.5 
POINT_DATA 2197
VECTORS grad float
0.00788812 -0.0393445 0.0796141 0.00279581 -0.0371811 0.0790289 -0.00144242 -0.0351413 0.0777708 
-0.00483956 -0.0333724 0.0762474 -0.00755135 -0.0318242 0.0745078 -0.00961967 -0.0306339 0.0728512 
-0.0112442 -0.0296905 0.0712518 -0.0124938 -0.0291006 0.0699116 -0.0135257 -0.0287161 0.0687218 
-0.0144279 -0.0286024 0.067801 -0.0152673 -0.0286199 0.0670107 -0.01614 -0.0287897 0.0663994 
-0.0170261 -0.0290205 0.0658596 0.00973944 -0.040112 0.0768253 0.00459207 -0.0383742 0.0766654 
0.00023441 -0.0366707 0.0758396 -0.00333699 -0.0351456 0.0746955 -0.00626773 -0.0337659 0.0732919 
-0.0085747 -0.0326618 0.0718794 -0.0104515 -0.0317478 0.0704608 -0.011933 -0.0311277 0.0692079 
-0.0131849 -0.030678 0.0680513 -0.0142594 -0.0304676 0.0670974 -0.0152479 -0.0303731 0.0662418 
-0.016214 -0.0304242 0.0655345 -0.0171711 -0.0305336 0.0648866 0.0113593 -0.0406722 0.0737997 
0.00620446 -0.0393752 0.0740261 0.00177279 -0.0380252 0.0736029 -0.00193068 -0.0367626 0.0728214 
-0.00504081 -0.0355712 0.071748 -0.00755274 -0.0345731 0.0705866 -0.00965214 -0.0337082 0.0693646 
-0.0113437 -0.0330752 0.0682232 -0.0127984 -0.0325767 0.0671286 -0.0140354 -0.0322823 0.0661722 
-0.015167 -0.0320868 0.0652828 -0.0162257 -0.0320264 0.064508 -0.0172552 -0.0320201 0.0637791 
0.0122035 -0.0406302 0.0705551 0.00717328 -0.0397642 0.0710433 0.00279345 -0.0387732 0.0709157 
-0.000922948 -0.0377925 0.0704183 -0.00409875 -0.0368204 0.0696195 -0.00671449 -0.0359684 0.0686856 
-0.00894398 -0.0351992 0.0676586 -0.0107715 -0.0346022 0.066652 -0.0123657 -0.0341051 0.0656573 
-0.0137222 -0.0337727 0.0647488 -0.0149635 -0.0335201 0.0638822 -0.0160985 -0.0333841 0.0630972 
-0.0171911 -0.0332947 0.062345 0.0128488 -0.0404338 0.0672542 0.00797707 -0.0399963 0.0679724 
0.00368134 -0.0393656 0.068113 -1.74172e-05 -0.0386719 0.0678795 -0.00322975 -0.0379269 0.0673411 
-0.00592334 -0.0372313 0.0666287 -0.00825921 -0.0365698 0.0657962 -0.0102038 -0.0360213 0.0649304 
-0.0119212 -0.0355385 0.0640453 -0.0133861 -0.0351799 0.0631977 -0.0147286 -0.0348815 0.0623683 
-0.0159358 -0.0346791 0.0615879 -0.0170889 -0.034515 0.0608273 0.0127799 -0.039835 0.0640825 
0.00816416 -0.0397672 0.064923 0.00404811 -0.0394591 0.0652328 0.000460543 -0.0390337 0.0651812 
-0.0026964 -0.0385126 0.064835 -0.00538248 -0.0379848 0.0642979 -0.00774384 -0.0374523 0.0636292 
-0.00973666 -0.0369825 0.0628944 -0.0115155 -0.036549 0.0621212 -0.013042 -0.0362013 0.061351 
-0.0144462 -0.0358951 0.0605822 -0.0157006 -0.0356611 0.0598359 -0.016895 -0.0354559 0.0590987 
0.0125716 -0.0391578 0.0609361 0.00823091 -0.0394481 0.0618779 0.00431319 -0.0394553 0.0623374 
0.000855071 -0.0392944 0.0624516 -0.00222854 -0.0389966 0.0622844 -0.00489045 -0.0386388 0.0619138 
-0.00726153 -0.0382397 0.0614028 -0.00928914 -0.0378543 0.060797 -0.0111173 -0.037477 0.0601362 
-0.0126964 -0.0371473 0.0594466 -0.0141546 -0.0368408 0.058743 -0.0154512 -0.036582 0.0580366 
-0.0166831 -0.0363423 0.057329 0.0118033 -0.0383165 0.0580936 0.00779031 -0.0388759 0.0590571 
0.00412821 -0.0391317 0.0595879 0.000860137 -0.0391885 0.0597976 -0.00208687 -0.0390832 0.0597457 
-0.00466217 -0.0388811 0.0594917 -0.00698113 -0.0386124 0.0590983 -0.00898762 -0.0383202 0.0585964 
-0.0108127 -0.0380144 0.0580316 -0.0124014 -0.0377244 0.0574187 -0.0138756 -0.0374422 0.0567823 
-0.0151871 -0.0371846 0.0561254 -0.0164335 -0.0369368 0.0554602 0.0109568 -0.0374523 0.0552935 
0.00727892 -0.0382685 0.0562676 0.00388043 -0.0387634 0.0568588 0.000810857 -0.0390314 0.0571542 
-0.00199071 -0.0391144 0.0572087 -0.00447069 -0.039066 0.0570643 -0.00672891 -0.0389272 0.0567828 
-0.00870648 -0.0387293 0.0563814 -0.0105211 -0.0384973 0.0559103 -0.0121135 -0.03825 0.0553734 
-0.0135982 -0.0379954 0.0548046 -0.0149208 -0.0377426 0.0541986 -0.0161786 -0.0374905 0.0535776 
0.00974781 -0.036616 0.0528472 0.00641391 -0.037592 0.0537821 0.00329871 -0.0382481 0.0543795 
0.0004553 -0.0386666 0.0547087 -0.00216665 -0.0388915 0.0548193 -0.00451342 -0.0389657 0.0547416 
-0.00667042 -0.0389362 0.054534 -0.00857954 -0.0388242 0.0542047 -0.0103447 -0.0386645 0.0538047 
-0.0119068 -0.0384668 0.0533307 -0.0133702 -0.0382506 0.0528207 -0.0146791 -0.0380174 0.0522638 
-0.0159261 -0.0377774 0.0516881 0.00850654 -0.0357822 0.0504323 0.00551747 -0.0369094 0.0513236 
0.00268731 -0.0377197 0.0519225 7.25176e-05 -0.0382833 0.0522808 -0.00236679 -0.038646 0.0524431 
-0.00457698 -0.0388401 0.0524282 -0.00662916 -0.038918 0.0522911 -0.00846631 -0.0388912 0.0520314 
-0.0101786 -0.0388037 0.0517005 -0.0117072 -0.038656 0.0512881 -0.0131466 -0.0384792 0.0508362 
-0.0144395 -0.038267 0.0503283 -0.0156738 -0.0380406 0.0497979 0.0070964 -0.0353755 0.0483521 
0.00442741 -0.036557 0.049175 0.0018716 -0.0374272 0.0497436 -0.000514355 -0.0380501 0.0500975 
-0.0027619 -0.0384715 0.0502766 -0.00481956 -0.0387185 0.0502922 -0.00674628 -0.0388454 0.0501951 
-0.00848833 -0.038859 0.04998 -0.0101231 -0.0388068 0.0496965 -0.0115947 -0.0386852 0.0493303 
-0.0129871 -0.0385299 0.0489239 -0.0142445 -0.038331 0.0484578 -0.015448 -0.0381145 0.0479678 
0.00567907 -0.034987 0.046286 0.00332911 -0.0362187 0.0470397 0.00104719 -0.0371449 0.0475765 
-0.00110992 -0.0378234 0.0479246 -0.00316531 -0.0383 0.0481189 -0.00506977 -0.0385971 0.0481637 
-0.00687015 -0.0387704 0.0481052 -0.00851609 -0.0388225 0.0479338 -0.0100724 -0.0388041 0.0476968 
-0.0114859 -0.0387075 0.047376 -0.0128302 -0.0385731 0.0470147 -0.0140514 -0.038387 0.0465901 
-0.0152233 -0.0381804 0.0461402 0.00777994 -0.0417162 0.0842173 0.00198299 -0.0390693 0.0832421 
-0.00272868 -0.0365541 0.081563 -0.00638638 -0.0343843 0.0796367 -0.00918529 -0.0324959 0.0775088 
-0.0112061 -0.0310778 0.0755203 -0.0126904 -0.029984 0.0736278 -0.0137578 -0.0293493 0.0720604 
-0.0145832 -0.0289811 0.0706817 -0.0153062 -0.0289516 0.0696252 -0.0159797 -0.0290865 0.0687251 
-0.0167452 -0.0293985 0.0680368 -0.0175475 -0.0297813 0.0674333 0.0100398 -0.0428936 0.0810025 
0.00419377 -0.0407506 0.0805129 -0.00065827 -0.0386331 0.079334 -0.00453502 -0.0367435 0.0778489 
-0.00761708 -0.0350397 0.0761142 -0.0099485 -0.033699 0.0744127 -0.0117623 -0.0326088 0.0727341 
-0.0131297 -0.0319017 0.0712733 -0.0142379 -0.0314171 0.0699391 -0.0151781 -0.0312353 0.0688522 
-0.0160368 -0.0312005 0.0678853 -0.016914 -0.0313409 0.0670966 -0.0177986 -0.0315514 0.0663792 
0.012025 -0.0437707 0.0775344 0.00618704 -0.0421492 0.0774855 0.00125094 -0.0404505 0.0767711 
-0.00279134 -0.0388659 0.0757067 -0.00610531 -0.0373743 0.0743571 -0.00870366 -0.0361399 0.07295 
-0.0108085 -0.0350827 0.0715033 -0.0124483 -0.0343302 0.0701767 -0.0138181 -0.0337545 0.0689199 
-0.0149646 -0.0334407 0.0678375 -0.0160028 -0.0332539 0.0668397 -0.0169931 -0.0332348 0.0659825 
-0.0179642 -0.0332827 0.0651817 0.0131018 -0.0438179 0.0738806 0.00742324 -0.0427018 0.074133 
0.00255123 -0.0414267 0.0737598 -0.00151262 -0.0401727 0.0730238 -0.00491798 -0.038936 0.0719921 
-0.007657 -0.0378649 0.0708488 -0.00993649 -0.036908 0.0696285 -0.0117565 -0.0361813 0.0684597 
-0.0133098 -0.0355882 0.0673208 -0.0146112 -0.0352097 0.0662975 -0.0157906 -0.0349353 0.0653303 
-0.0168777 -0.034809 0.064467 -0.0179278 -0.0347418 0.0636453 0.0139455 -0.0436524 0.0701792 
0.00846531 -0.0430374 0.0706972 0.00369538 -0.0421872 0.0706336 -0.000353133 -0.0412704 0.0702023 
-0.00381383 -0.0402995 0.0694713 -0.00666116 -0.0394064 0.0685839 -0.0090855 -0.0385671 0.0675886 
-0.0110621 -0.0378844 0.0665836 -0.0127787 -0.0372927 0.065573 -0.014222 -0.0368669 0.0646228 
-0.0155327 -0.0365214 0.063702 -0.0167124 -0.0363012 0.0628485 -0.0178396 -0.0361312 0.062022 
0.0139639 -0.0429518 0.0666701 0.00878919 -0.0427651 0.0673361 0.00422923 -0.0422925 0.0674708 
0.000304753 -0.0416902 0.0672507 -0.00310191 -0.0409823 0.0667414 -0.00595441 -0.0402844 0.0660554 
-0.00842475 -0.0395935 0.0652477 -0.0104738 -0.0389973 0.0643927 -0.0122781 -0.0384563 0.0635102 
-0.0138068 -0.0380345 0.0626492 -0.0152019 -0.0376707 0.0617986 -0.0164455 -0.0374046 0.0609856 
-0.0176286 -0.0371776 0.0601877 0.0138212 -0.0421467 0.0631985 0.00897293 -0.0423742 0.0639895 
0.00464398 -0.0422699 0.064301 0.000864761 -0.0419777 0.0642738 -0.00246653 -0.0415323 0.0639706 
-0.00530408 -0.041033 0.0634755 -0.00780113 -0.0404965 0.0628481 -0.00990612 -0.0399951 0.0621404 
-0.0117835 -0.0395142 0.061386 -0.0133866 -0.0391067 0.0606173 -0.0148568 -0.0387348 0.0598415 
-0.0161588 -0.0384321 0.0590751 -0.0173935 -0.0381571 0.0583123 0.0130398 -0.0411259 0.0600943 
0.00857194 -0.0416619 0.0609245 0.00453565 -0.0418458 0.0613262 0.00096961 -0.0418074 0.0614136 
-0.00221326 -0.0415879 0.0612448 -0.0049623 -0.041271 0.0608838 -0.00741215 -0.040887 0.0603903 
-0.00950595 -0.0404934 0.0598002 -0.011393 -0.0400942 0.0591541 -0.0130192 -0.0397302 0.0584716 
-0.014519 -0.0393831 0.0577714 -0.0158472 -0.0390781 0.0570606 -0.0171068 -0.0387899 0.0563456 
0.0121692 -0.040075 0.0570412 0.00808935 -0.0409047 0.0578987 0.00435433 -0.0413657 0.0583787 
0.00101095 -0.0415733 0.0585697 -0.00201331 -0.0415746 0.0585253 -0.00466357 -0.0414379 0.0582905 
-0.00705591 -0.041206 0.0579244 -0.00912915 -0.0409219 0.0574478 -0.0110171 -0.0406075 0.0569072 
-0.0126592 -0.040291 0.05631 -0.0141822 -0.0399735 0.0556855 -0.0155322 -0.039671 0.0550316 
-0.0168129 -0.0393744 0.0543661 0.0108901 -0.0390514 0.0543951 0.00720276 -0.0400627 0.0552261 
0.00378747 -0.0407095 0.0557254 0.000696112 -0.041092 0.055963 -0.00213129 -0.0412592 0.0559874 
-0.00463904 -0.0412661 0.0558308 -0.00692634 -0.0411624 0.0555495 -0.00893215 -0.0409788 0.0551545 
-0.0107745 -0.0407488 0.0546935 -0.0123919 -0.0404893 0.0541663 -0.0139003 -0.0402156 0.0536068 
-0.0152427 -0.0399347 0.0530071 -0.0165188 -0.0396509 0.0523912 0.00957477 -0.0380303 0.0517851 
0.00628026 -0.0392132 0.0525849 0.00318634 -0.0400376 0.0530984 0.000349619 -0.0405886 0.0533774 
-0.00227753 -0.0409169 0.0534656 -0.00463887 -0.0410642 0.053383 -0.00681692 -0.0410867 0.0531826 
-0.00875115 -0.0410027 0.0528664 -0.0105438 -0.0408569 0.0524829 -0.0121329 -0.0406554 0.0520241 
-0.0136232 -0.0404267 0.0515288 -0.0149555 -0.0401692 0.0509829 -0.0162246 -0.0399 0.0504168 
0.00807157 -0.0375305 0.0495515 0.00513733 -0.0387748 0.050293 0.00234954 -0.0396683 0.0507856 
-0.000234166 -0.0402881 0.0510693 -0.00265159 -0.0406849 0.0511828 -0.00484846 -0.0408942 0.0511387 
-0.00689323 -0.0409742 0.0509858 -0.00872857 -0.0409376 0.0507207 -0.0104423 -0.0408332 0.0503906 
-0.0119751 -0.040662 0.049983 -0.0134202 -0.0404583 0.0495379 -0.0147194 -0.0402159 0.0490377 
-0.0159602 -0.0399581 0.0485154 0.00656037 -0.037053 0.047334 0.00398502 -0.038354 0.0480159 
0.00150272 -0.0393119 0.0484862 -0.000828051 -0.0399963 0.048773 -0.00303535 -0.0404577 0.0489102 
-0.00506697 -0.0407256 0.048903 -0.00697744 -0.0408602 0.0487961 -0.00871273 -0.0408687 0.0485811 
-0.0103463 -0.0408038 0.0483033 -0.0118217 -0.0406618 0.0479462 -0.0132203 -0.0404823 0.0475507 
-0.0144855 -0.0402547 0.0470958 -0.0156972 -0.040008 0.0466171 0.00761342 -0.0441499 0.0890602 
0.00110726 -0.0410082 0.0876735 -0.00407911 -0.0380055 0.0855503 -0.00799506 -0.035424 0.0831988 
-0.0108758 -0.0331859 0.0806614 -0.0128422 -0.0315334 0.0783229 -0.014178 -0.0302848 0.0761217 
-0.0150556 -0.0296032 0.0743151 -0.015667 -0.0292508 0.0727375 -0.016205 -0.0293065 0.0715383 
-0.0167075 -0.0295601 0.0705226 -0.0173623 -0.030016 0.0697533 -0.0180781 -0.0305527 0.0690827 
0.0102904 -0.0457413 0.0853887 0.00374228 -0.0431839 0.0845519 -0.0016052 -0.0406419 0.0830009 
-0.00578567 -0.0383783 0.0811566 -0.00901525 -0.0363416 0.0790733 -0.0113659 -0.0347577 0.0770678 
-0.0131104 -0.0334862 0.075116 -0.0143576 -0.0326892 0.0734368 -0.015316 -0.0321678 0.071916 
-0.0161169 -0.0320144 0.0706895 -0.0168414 -0.0320394 0.0696058 -0.0176266 -0.0322697 0.0687317 
-0.0184361 -0.0325823 0.0679414 0.0126487 -0.0469364 0.081448 0.00612527 -0.0449828 0.0811095 
0.000684038 -0.0429267 0.0800888 -0.00369587 -0.041012 0.0787271 -0.00721099 -0.0392125 0.0770874 
-0.00989188 -0.0377354 0.0754224 -0.0119975 -0.0364807 0.07374 -0.0135808 -0.0356051 0.0722194 
-0.014861 -0.0349497 0.0707928 -0.0159129 -0.0346152 0.0695785 -0.0168541 -0.0344363 0.0684671 
-0.0177733 -0.0344583 0.0675238 -0.0186837 -0.0345606 0.0666478 0.0139635 -0.0470693 0.0773606 
0.00763536 -0.0456967 0.0773651 0.00227089 -0.0441305 0.0767338 -0.00213939 -0.0425963 0.0757474 
-0.00577215 -0.0410883 0.0744715 -0.00863145 -0.0397926 0.0731087 -0.0109573 -0.0386431 0.071686 
-0.0127661 -0.0377832 0.0703475 -0.0142746 -0.0370913 0.0690579 -0.0155178 -0.0366651 0.0679146 
-0.0166322 -0.0363677 0.0668423 -0.017669 -0.0362504 0.0658972 -0.0186748 -0.0362051 0.0650029 
0.0150108 -0.0469298 0.0732356 0.00892162 -0.0461324 0.0735433 0.00367763 -0.0450569 0.0732653 
-0.000719652 -0.0439115 0.0726266 -0.00442702 -0.042709 0.0716941 -0.00742578 -0.0416136 0.0706237 
-0.00993585 -0.0405922 0.0694582 -0.0119416 -0.039772 0.0683078 -0.0136546 -0.0390687 0.0671661 
-0.0150736 -0.0385737 0.066109 -0.0163501 -0.0381796 0.0650928 -0.0175004 -0.0379408 0.0641632 
-0.0186001 -0.0377641 0.0632681 0.0151201 -0.0461215 0.0693715 0.00938654 -0.045812 0.069854 
0.0043831 -0.04517 0.0698052 0.000122726 -0.0443863 0.0694086 -0.0035322 -0.043487 0.0687285 
-0.00654922 -0.042615 0.067887 -0.00912633 -0.0417618 0.0669342 -0.0112292 -0.0410364 0.0659537 
-0.0130568 -0.0403852 0.0649573 -0.0145856 -0.0398876 0.0640017 -0.0159695 -0.0394646 0.0630659 
-0.0172008 -0.0391655 0.0621835 -0.0183712 -0.0389158 0.0613225 0.0150465 -0.0451826 0.0655583 
0.00969119 -0.045344 0.0661907 0.00495174 -0.0451244 0.0663469 0.000852446 -0.0446971 0.0661716 
-0.00272524 -0.0441005 0.0657263 -0.00573688 -0.0434563 0.0651013 -0.00835817 -0.0427792 0.0643524 
-0.0105387 -0.0421593 0.0635384 -0.0124634 -0.0415727 0.0626867 -0.014089 -0.0410856 0.0618356 
-0.0155696 -0.0406468 0.0609848 -0.0168758 -0.0402992 0.060156 -0.0181122 -0.0399881 0.0593359 
0.0142546 -0.0439769 0.0621798 0.00933266 -0.0444865 0.0628698 0.00492305 -0.0445956 0.0631362 
0.00106007 -0.044459 0.0630956 -0.0023575 -0.0441222 0.0628046 -0.00527893 -0.0436877 0.062332 
-0.00785822 -0.0431857 0.0617341 -0.0100378 -0.0426885 0.0610521 -0.0119854 -0.0421941 0.0603214 
-0.0136478 -0.0417544 0.0595665 -0.0151719 -0.0413413 0.0588 -0.0165158 -0.040988 0.0580333 
-0.0177876 -0.0406585 0.0572665 0.0133623 -0.042734 0.058862 0.00888159 -0.0435748 0.0595967 
0.004811 -0.0439993 0.0599601 0.00119484 -0.0441442 0.0600419 -0.00205104 -0.0440614 0.0598942 
-0.00487043 -0.043834 0.0595651 -0.00739569 -0.0435069 0.0591107 -0.0095634 -0.0431348 0.058556 
-0.0115235 -0.0427365 0.0579429 -0.0132143 -0.0423494 0.0572831 -0.0147745 -0.0419678 0.0566007 
-0.016151 -0.0416146 0.0558973 -0.017454 -0.0412728 0.0551854 0.0120153 -0.0415189 0.0560071 
0.00797546 -0.0425633 0.0567288 0.00426105 -0.0431987 0.0571253 0.00092273 -0.0435431 0.057267 
-0.00210913 -0.0436506 0.0572012 -0.00477683 -0.0435882 0.0569623 -0.00719342 -0.0434088 0.0566042 
-0.00929491 -0.043152 0.0561408 -0.0112135 -0.0428502 0.0556165 -0.0128854 -0.0425279 0.0550339 
-0.0144377 -0.0421956 0.0544231 -0.015813 -0.0418662 0.0537789 -0.0171175 -0.0415379 0.0531214 
0.0106278 -0.0403063 0.0531934 0.00702889 -0.041543 0.053897 0.00367217 -0.0423798 0.0543208 
0.000614455 -0.0429165 0.0545169 -0.00219962 -0.0432087 0.0545275 -0.00471124 -0.0433077 0.0543742 
-0.00701428 -0.0432734 0.054108 -0.00904473 -0.043131 0.0537329 -0.0109169 -0.0429258 0.0532946 
-0.0125658 -0.0426693 0.0527877 -0.0141063 -0.0423881 0.0522474 -0.0154774 -0.0420845 0.0516621 
-0.0167807 -0.0417719 0.0510589 0.00903319 -0.0397116 0.0507999 0.00583465 -0.041017 0.0514556 
0.00281578 -0.0419321 0.0518686 3.51636e-05 -0.0425473 0.0520787 -0.00255131 -0.042918 0.0521237 
-0.0048866 -0.0430882 0.0520172 -0.00704865 -0.0431201 0.0518061 -0.00897656 -0.0430321 0.051489 
-0.0107685 -0.0428744 0.0511103 -0.012362 -0.0426526 0.0506598 -0.0138592 -0.0423998 0.0501745 
-0.0151996 -0.0421134 0.0496389 -0.0164774 -0.0418135 0.0490831 0.00742973 -0.0391432 0.0484243 
0.00462986 -0.040512 0.0490309 0.001948 -0.0415002 0.0494314 -0.000555664 -0.0421889 0.0496539 
-0.00291412 -0.0426337 0.0497314 -0.00507221 -0.0428713 0.0496699 -0.00709211 -0.042966 0.0495125 
-0.00891614 -0.0429298 0.0492521 -0.0106264 -0.0428176 0.0489319 -0.0121631 -0.0426292 0.048537 
-0.0136156 -0.042404 0.048106 -0.0149243 -0.0421343 0.0476196 -0.0161754 -0.0418468 0.0471109 
0.00607602 -0.0480401 0.0995341 -0.00124683 -0.0441406 0.0972346 -0.00693713 -0.0403625 0.0941204 
-0.0110569 -0.0371176 0.0908228 -0.0138969 -0.0343073 0.0873758 -0.0156456 -0.0322666 0.0842651 
-0.0166417 -0.0307567 0.0813863 -0.0171479 -0.0299816 0.0790577 -0.0173696 -0.0296332 0.0770485 
-0.0175844 -0.0297934 0.0755394 -0.0177957 -0.0302 0.0742727 -0.0182602 -0.0308399 0.0733263 
-0.0188258 -0.031573 0.0725081 0.0093722 -0.050144 0.0946851 0.00204109 -0.0469527 0.0930867 
-0.00382687 -0.0437407 0.0907201 -0.00827304 -0.0408793 0.0880915 -0.0115607 -0.0383036 0.0852496 
-0.0138069 -0.0363219 0.0825872 -0.0153349 -0.0347499 0.0800485 -0.0163176 -0.0337937 0.0779038 
-0.0169838 -0.0331951 0.0759879 -0.0175289 -0.0330602 0.0744672 -0.0180153 -0.03315 0.0731381 
-0.018636 -0.0334862 0.0720845 -0.0193105 -0.033921 0.0711411 0.0122837 -0.0516816 0.0895668 
0.00502164 -0.0492181 0.0886 -0.000941529 -0.0466019 0.0869204 -0.00563148 -0.0441647 0.084923 
-0.00928399 -0.0418735 0.0826667 -0.0119567 -0.0400063 0.0804578 -0.0139536 -0.0384313 0.0782815 
-0.0153699 -0.0373496 0.0763579 -0.0164489 -0.0365543 0.074581 -0.0173115 -0.0361674 0.0730966 
-0.0180691 -0.0359785 0.071754 -0.0188537 -0.0360376 0.0706358 -0.0196491 -0.0361958 0.0696075 
0.0139677 -0.0518154 0.0844713 0.0069585 -0.0500406 0.0839407 0.00109451 -0.0480158 0.0827601 
-0.00363767 -0.0460393 0.0812455 -0.00744764 -0.0441021 0.0794587 -0.0103564 -0.0424499 0.0776408 
-0.0126436 -0.0409942 0.0758016 -0.0143536 -0.0399185 0.074117 -0.0157285 -0.0390635 0.0725222 
-0.016836 -0.0385498 0.0711381 -0.0178139 -0.0382016 0.0698562 -0.0187463 -0.0380795 0.0687487 
-0.0196605 -0.0380478 0.0677109 0.0153368 -0.0515893 0.0793816 0.00862774 -0.0504932 0.079237 
0.00291278 -0.0490586 0.0785075 -0.00180996 -0.047552 0.0774377 -0.0057242 -0.0459867 0.0760905 
-0.00882012 -0.0445754 0.0746477 -0.0113517 -0.0432703 0.0731388 -0.0133197 -0.0422344 0.0716978 
-0.0149605 -0.0413549 0.0702962 -0.0162943 -0.0407464 0.0690289 -0.0174794 -0.0402695 0.0678267 
-0.0185555 -0.0399908 0.0667492 -0.019588 -0.0397915 0.0657214 0.015624 -0.0505364 0.0747484 
0.00933344 -0.0500078 0.0748368 0.00389683 -0.049087 0.0744029 -0.000675795 -0.0480126 0.0736417 
-0.00454441 -0.0468129 0.0726137 -0.00768128 -0.0456704 0.0714588 -0.0103135 -0.0445674 0.0702165 
-0.0124167 -0.0436432 0.0689885 -0.0142126 -0.0428228 0.0677688 -0.0156921 -0.0422069 0.0666298 
-0.0170182 -0.0416901 0.0655299 -0.0182001 -0.0413348 0.0645147 -0.0193244 -0.0410441 0.0635333 
0.0157001 -0.0493221 0.0702043 0.00985113 -0.0493394 0.0704959 0.0047181 -0.0489175 0.0703273 
0.000323035 -0.0482678 0.069848 -0.0034707 -0.0474325 0.0691157 -0.00661998 -0.0465643 0.0682318 
-0.0093248 -0.0456735 0.0672435 -0.0115391 -0.044875 0.0662225 -0.0134687 -0.04413 0.0651826 
-0.015078 -0.0435237 0.0641741 -0.0165322 -0.0429845 0.0631809 -0.0178126 -0.0425681 0.0622343 
-0.0190235 -0.0422008 0.0613064 0.0149594 -0.0478048 0.0662599 0.00960222 -0.0482218 0.0666481 
0.00483932 -0.0481837 0.0666315 0.000703699 -0.0478766 0.0663281 -0.00292081 -0.0473504 0.0657913 
-0.00598314 -0.0467325 0.0650971 -0.00865778 -0.0460513 0.0642945 -0.0108887 -0.0453992 0.0634345 
-0.012862 -0.0447641 0.0625413 -0.0145288 -0.0442135 0.0616491 -0.0160471 -0.0437039 0.0607574 
-0.017382 -0.0432797 0.0598857 -0.0186435 -0.0428897 0.0590221 0.0141047 -0.0462451 0.0623992 
0.00924633 -0.0470415 0.0628692 0.00486287 -0.0473711 0.0629886 0.000998106 -0.0473952 0.0628464 
-0.002444 -0.0471704 0.0624911 -0.00540552 -0.0467993 0.0619752 -0.00803564 -0.0463274 0.0613487 
-0.01027 -0.0458247 0.0606434 -0.0122745 -0.0453041 0.0598923 -0.0139887 -0.0448158 0.0591144 
-0.0155621 -0.0443431 0.0583234 -0.0169454 -0.0439186 0.0575276 -0.0182525 -0.0435134 0.0567299 
0.0127372 -0.044739 0.0591262 0.00836876 -0.045768 0.0596122 0.00437796 -0.046342 0.0597929 
0.000815764 -0.0465994 0.0597377 -0.00239719 -0.046599 0.0594904 -0.00520096 -0.0464231 0.0590887 
-0.00772256 -0.0461262 0.0585806 -0.00989609 -0.0457602 0.0579857 -0.0118675 -0.0453542 0.0573405 
-0.0135729 -0.0449425 0.0566536 -0.0151492 -0.0445282 0.0559467 -0.0165408 -0.0441316 0.0552199 
-0.0178585 -0.0437423 0.0544853 0.0113241 -0.0432376 0.0559056 0.00744482 -0.0444861 0.0564015 
0.00384786 -0.0452936 0.0566369 0.000591043 -0.0457757 0.0566622 -0.00238861 -0.0459928 0.0565164 
-0.00502957 -0.0460075 0.0562232 -0.00743695 -0.0458825 0.0558282 -0.00954399 -0.0456522 0.0553399 
-0.0114766 -0.0453606 0.0547972 -0.0131682 -0.0450269 0.0541995 -0.0147428 -0.0446729 0.0535751 
-0.0161392 -0.0443069 0.0529168 -0.0174643 -0.0439361 0.0522449 0.00967632 -0.042504 0.0531972 
0.00623579 -0.0438311 0.053668 0.00300674 -0.0447293 0.0539134 4.92567e-05 -0.0453031 0.053972 
-0.00268694 -0.0456125 0.0538783 -0.00514201 -0.045711 0.0536478 -0.0074032 -0.0456642 0.0533229 
-0.00940668 -0.0454981 0.0529053 -0.0112605 -0.0452626 0.0524338 -0.0129 -0.0449699 0.0519023 
-0.0144355 -0.0446494 0.0513416 -0.0158057 -0.0443036 0.05074 -0.0171098 -0.0439478 0.0501221 
0.00801853 -0.041803 0.0505107 0.00501462 -0.0432027 0.0509547 0.00215238 -0.0441856 0.0512083 
-0.000506025 -0.0448454 0.0512981 -0.00299834 -0.0452417 0.0512545 -0.00526653 -0.0454197 0.0510848 
-0.00738017 -0.045447 0.050828 -0.00927851 -0.045342 0.0504796 -0.0110518 -0.0451602 0.050078 
-0.0126377 -0.0449068 0.0496117 -0.0141325 -0.0446187 0.0491139 -0.0154752 -0.0442927 0.0485686 
-0.016757 -0.0439516 0.0480043 0.00438286 -0.0521719 0.110182 -0.00376981 -0.0474797 0.106953 
-0.00996793 -0.0428856 0.102827 -0.0142849 -0.038941 0.0985646 -0.0170689 -0.0355258 0.09419 
-0.0185803 -0.0330732 0.0902927 -0.019214 -0.0312845 0.0867245 -0.019328 -0.0304062 0.0838654 
-0.0191401 -0.0300566 0.0814178 -0.0190164 -0.0303197 0.0795939 -0.0189237 -0.0308798 0.0780724 
-0.0191892 -0.031705 0.0769458 -0.0195979 -0.0326363 0.0759773 0.00832289 -0.0547778 0.104095 
0.000200803 -0.0509246 0.101723 -0.00618988 -0.0470095 0.0985274 -0.0108966 -0.0435197 0.0951023 
-0.0142313 -0.0403764 0.0914904 -0.0163584 -0.0379748 0.0881621 -0.0176527 -0.0360848 0.0850294 
-0.0183547 -0.0349581 0.082414 -0.0187128 -0.0342748 0.0800991 -0.0189897 -0.0341544 0.0782814 
-0.0192272 -0.0343071 0.0767049 -0.0196759 -0.0347485 0.0754703 -0.0202092 -0.0353055 0.0743724 
0.0118091 -0.0566384 0.0977477 0.00380508 -0.0536436 0.0961449 -0.00268027 -0.0504416 0.0937983 
-0.00767593 -0.0474573 0.0911584 -0.0114578 -0.0446506 0.0882794 -0.0141116 -0.0423737 0.0855221 
-0.0159875 -0.0404622 0.0828487 -0.0172245 -0.0391629 0.0805199 -0.0180905 -0.038219 0.0783912 
-0.0187539 -0.0377743 0.0766359 -0.0193192 -0.0375717 0.0750616 -0.0199629 -0.0376658 0.0737683 
-0.020638 -0.0378785 0.0725874 0.0138769 -0.0567479 0.0916152 0.00618664 -0.054554 0.0905435 
-0.000175511 -0.0520504 0.0888086 -0.00522538 -0.0496117 0.0867617 -0.00920598 -0.047226 0.0844606 
-0.0121558 -0.0452011 0.0821854 -0.0143948 -0.043425 0.0799282 -0.0159966 -0.0421232 0.077897 
-0.0172286 -0.0410968 0.0759969 -0.0181927 -0.0404901 0.0743723 -0.0190269 -0.0400869 0.0728813 
-0.0198497 -0.0399574 0.0716118 -0.0206679 -0.0399374 0.070431 0.015581 -0.0564083 0.0855377 
0.00825467 -0.0550005 0.0849363 0.00207158 -0.0531917 0.0837521 -0.00297232 -0.0513089 0.0822489 
-0.007088 -0.0493657 0.0804858 -0.0102746 -0.0476254 0.0786701 -0.0128206 -0.0460249 0.076818 
-0.0147437 -0.0447643 0.0750871 -0.0163053 -0.0437011 0.0734265 -0.017548 -0.042974 0.0719502 
-0.0186361 -0.0424099 0.0705632 -0.0196339 -0.0420886 0.0693387 -0.0205957 -0.0418645 0.0681793 
0.0160554 -0.0550877 0.0801247 0.0092119 -0.0543295 0.079815 0.00334576 -0.053118 0.0789935 
-0.00153478 -0.051741 0.0778662 -0.00561223 -0.050229 0.0764898 -0.00886353 -0.0488055 0.0750218 
-0.0115451 -0.0474433 0.0734906 -0.0136428 -0.0463127 0.0720162 -0.0154016 -0.0453167 0.0705746 
-0.016827 -0.0445777 0.0692535 -0.0180908 -0.0439634 0.067991 -0.01922 -0.0435493 0.0668441 
-0.0202953 -0.0432153 0.0657435 0.0162899 -0.0535756 0.0748415 0.00995238 -0.0534405 0.0747885 
0.00443009 -0.0528073 0.0742932 -0.000256373 -0.0519262 0.073509 -0.00426178 -0.0508431 0.0724896 
-0.00754417 -0.0497429 0.0713476 -0.0103279 -0.048631 0.0701209 -0.0125716 -0.0476478 0.0688943 
-0.0145017 -0.0467393 0.0676676 -0.0160911 -0.0460097 0.0665033 -0.0175154 -0.0453668 0.0653693 
-0.0187674 -0.0448792 0.0643063 -0.0199506 -0.0444537 0.0632718 0.0156073 -0.05173 0.0703284 
0.00982005 -0.0520474 0.0704114 0.00470832 -0.0518547 0.0701098 0.000304271 -0.05137 0.069543 
-0.00352314 -0.0506471 0.0687602 -0.0067224 -0.0498394 0.0678451 -0.00948848 -0.048973 0.0668388 
-0.011767 -0.0481612 0.0658022 -0.0137625 -0.047381 0.0647479 -0.0154308 -0.0467162 0.0637198 
-0.0169404 -0.0461073 0.0627043 -0.0182641 -0.0456102 0.0617291 -0.0195135 -0.0451578 0.06077 
0.0147966 -0.0498378 0.0659228 0.00956592 -0.050584 0.0661249 0.00487406 -0.0508127 0.0659986 
0.000764761 -0.0507103 0.0656316 -0.00286986 -0.0503382 0.0650685 -0.00597007 -0.0498185 0.0643666 
-0.00870173 -0.049197 0.0635689 -0.0109997 -0.0485599 0.0627142 -0.0130458 -0.0479138 0.0618263 
-0.014781 -0.0473215 0.0609315 -0.0163655 -0.0467553 0.0600334 -0.0177537 -0.0462577 0.0591465 
-0.0190635 -0.0457874 0.058264 0.013414 -0.0480296 0.0622319 0.00872192 -0.0490379 0.0624791 
0.00445894 -0.0495455 0.0624424 0.000676615 -0.0497113 0.0621895 -0.00271406 -0.0495985 0.0617605 
-0.00565081 -0.049305 0.0611964 -0.00827453 -0.0488869 0.060539 -0.0105175 -0.0484087 0.0598135 
-0.0125394 -0.0478956 0.0590485 -0.0142762 -0.0473923 0.0582586 -0.0158747 -0.0468939 0.0574567 
-0.0172811 -0.0464288 0.0566484 -0.0186108 -0.045977 0.0558376 0.0119806 -0.0462288 0.0586045 
0.00782549 -0.0474845 0.0588901 0.00399218 -0.0482584 0.0589355 0.000539702 -0.0486822 0.0587892 
-0.00260247 -0.0488206 0.0584866 -0.00537005 -0.0487478 0.0580536 -0.00787929 -0.0485293 0.0575305 
-0.0100607 -0.0482085 0.0569296 -0.0120518 -0.0478284 0.0562835 -0.0137843 -0.0474156 0.055596 
-0.0153914 -0.0469871 0.0548884 -0.0168119 -0.0465575 0.054158 -0.0181578 -0.0461274 0.0534183 
0.010284 -0.0453517 0.0555822 0.00660554 -0.0466961 0.0558655 0.0031698 -0.0475736 0.0559418 
3.85234e-05 -0.0481025 0.0558479 -0.00284467 -0.0483473 0.0556153 -0.0054171 -0.0483714 0.0552608 
-0.00777523 -0.0482434 0.0548223 -0.00985236 -0.0479969 0.0543048 -0.0117663 -0.0476817 0.0537413 
-0.0134504 -0.0473163 0.0531294 -0.0150229 -0.0469266 0.0524942 -0.0164218 -0.0465204 0.0518275 
-0.0177513 -0.0461075 0.0511483 0.00857625 -0.0445138 0.0525856 0.00537183 -0.0459402 0.0528648 
0.00233228 -0.0469144 0.05297 -0.00047816 -0.047542 0.0529262 -0.00310192 -0.0478871 0.0527611 
-0.00547811 -0.0480028 0.052483 -0.00768356 -0.0479605 0.052127 -0.00965457 -0.0477848 0.051691 
-0.0114895 -0.0475316 0.0512085 -0.0131232 -0.0472117 0.0506712 -0.0146593 -0.0468594 0.0501074 
-0.0160351 -0.0464761 0.0495039 -0.0173467 -0.0460804 0.0488846 0.000937346 -0.059023 0.122795 
-0.00819284 -0.0531436 0.118443 -0.0149426 -0.0472772 0.113075 -0.0193825 -0.0422246 0.107631 
-0.0219403 -0.0378353 0.102126 -0.0229935 -0.0347045 0.097281 -0.0230089 -0.0324418 0.0928914 
-0.0224952 -0.0313511 0.0894055 -0.0216742 -0.0309409 0.0864444 -0.0210406 -0.0312905 0.0842509 
-0.020498 -0.0320086 0.0824297 -0.020469 -0.0330341 0.0810883 -0.0206454 -0.0341827 0.0799389 
0.005799 -0.0620121 0.114782 -0.00320445 -0.0571814 0.111503 -0.0101429 -0.0521918 0.107328 
-0.0150529 -0.047729 0.102968 -0.01831 -0.0436954 0.0984573 -0.020153 -0.0406258 0.0943623 
-0.0210208 -0.038221 0.0905538 -0.0212592 -0.0367976 0.0874101 -0.0211322 -0.035944 0.0846524 
-0.0210002 -0.0357945 0.0825076 -0.0208659 -0.0359864 0.0806599 -0.0210587 -0.036526 0.0792264 
-0.0213823 -0.0372045 0.0779586 0.0101004 -0.0639775 0.106628 0.00131815 -0.0602093 0.1043 
-0.00569218 -0.0561325 0.101199 -0.0109448 -0.0523237 0.0978391 -0.0147652 -0.0487331 0.0942695 
-0.0172804 -0.0458284 0.0909133 -0.0188954 -0.0433968 0.0877042 -0.0198167 -0.0417504 0.0849458 
-0.0203353 -0.0405598 0.0824492 -0.0206891 -0.0399969 0.0804143 -0.020963 -0.0397381 0.0786032 
-0.0213954 -0.0398439 0.0771316 -0.0218911 -0.0400954 0.0757958 0.0127179 -0.0637773 0.0991336 
0.00434602 -0.0609733 0.0974533 -0.00249907 -0.0577639 0.0951057 -0.00781913 -0.0546408 0.0924798 
-0.0118966 -0.0515881 0.0896271 -0.0147937 -0.0490074 0.0868702 -0.0168768 -0.0467522 0.0841794 
-0.0182647 -0.0451069 0.081795 -0.0192487 -0.0438158 0.0795886 -0.0199813 -0.0430543 0.0777265 
-0.020592 -0.0425494 0.0760314 -0.021247 -0.0423838 0.0746051 -0.0219196 -0.0423539 0.0732862 
0.0149037 -0.0630218 0.0918083 0.00699061 -0.0611567 0.0906976 0.00037155 -0.058803 0.0890221 
-0.00494538 -0.056374 0.0870614 -0.00920129 -0.0538835 0.0848682 -0.012406 -0.0516675 0.0826749 
-0.0148857 -0.0496407 0.0804815 -0.0166845 -0.0480541 0.0784682 -0.0180879 -0.0467231 0.0765594 
-0.0191719 -0.0458181 0.0748864 -0.020101 -0.0451196 0.0733276 -0.0209742 -0.0447243 0.0719679 
-0.021825 -0.0444502 0.0706878 0.0156712 -0.0611734 0.085495 0.00832029 -0.0600681 0.0847409 
0.00206582 -0.0584314 0.0835037 -0.00307402 -0.0566175 0.0819945 -0.00730563 -0.0546592 0.0802638 