# vtk DataFile Version 2.0
vtk output
ASCII
DATASET RECTILINEAR_GRID
DIMENSIONS 13 13 13
X_COORDINATES 13 float
-7.5 -7.29167 -7.08333 -6.875 -6.66667 -6.45833 -6.25 -6.04167 -5.83333 
-5.625 -5.41667 -5.20833 -5 
Y_COORDINATES 13 float
-7.5 -7.29167 -7.08333 -6.875 -6.66667 -6.45833 -6.25 -6.04167 -5.83333 
-5.625 -5.41667 -5.20833 -5 
Z_COORDINATES 13 float
-7.5 -7.29167 -7.08333 -6.875 -6.66667 -6.45833 -6.25 -6.04167 -5.83333 
-5.625 -5.41667 -5.20833 -5 
POINT_DATA 2197
VECTORS grad float
0.0239149 0.068687 0.0418567 0.0239138 0.0693656 0.0420417 0.0240447 0.0700221 0.0422466 
0.0245054 0.0706234 0.042501 0.0251186 0.0712186 0.0428174 0.0260461 0.071801 0.0432617 
0.0271297 0.072416 0.0438419 0.0284818 0.0730873 0.0446562 0.029968 0.0738594 0.0457207 
0.0316487 0.074778 0.0471481 0.0333967 0.0758943 0.0489826 0.0352272 0.0772534 0.0513168 
0.0369719 0.0789253 0.0542475 0.024554 0.0698266 0.0424554 0.0245009 0.0703771 0.0425919 
0.0245869 0.0709 0.0427525 0.0250203 0.0713542 0.0429736 0.0256205 0.0717968 0.0432678 
0.0265647 0.072216 0.0437124 0.0276892 0.07266 0.0443128 0.0291243 0.0731467 0.0451814 
0.0307291 0.0737204 0.0463323 0.0325798 0.07442 0.0478924 0.0345424 0.0752949 0.0499108 
0.0366423 0.0763847 0.0524914 0.0387034 0.0777575 0.0557506 0.025123 0.0710439 0.043105 
0.0250101 0.0714615 0.0431907 0.0250435 0.0718453 0.043304 0.0254425 0.0721446 0.0434862 
0.0260221 0.0724258 0.0437508 0.0269742 0.0726695 0.0441855 0.0281297 0.072928 0.0447936 
0.0296356 0.0732117 0.0457005 0.0313442 0.0735647 0.046919 0.0333469 0.0740181 0.0485893 
0.0355032 0.0746184 0.0507652 0.0378482 0.075399 0.0535616 0.040199 0.0764235 0.0571134 
0.0255166 0.0724555 0.0438818 0.0253246 0.0727282 0.0439112 0.0252865 0.0729588 0.0439692 
0.0256329 0.0730844 0.0440983 0.0261726 0.0731814 0.0443155 0.0271113 0.0732194 0.0447143 
0.0282729 0.073256 0.045299 0.0298186 0.0732903 0.0462042 0.0315944 0.0733672 0.0474435 
0.033704 0.073506 0.0491675 0.0360019 0.0737493 0.0514354 0.038531 0.0741207 0.054371 
0.041105 0.074674 0.0581258 0.0258203 0.0739872 0.0447245 0.0255384 0.0741094 0.0446924 
0.0254176 0.074181 0.0446885 0.0256998 0.0741258 0.044755 0.0261871 0.0740308 0.0449133 
0.0270973 0.0738537 0.0452612 0.0282477 0.0736578 0.0458049 0.0298118 0.0734295 0.0466859 
0.0316293 0.0732149 0.0479195 0.0338142 0.0730201 0.0496645 0.0362164 0.0728835 0.051985 
0.0388852 0.0728181 0.0550117 0.0416311 0.0728658 0.0589095 0.0259385 0.0757667 0.0457035 
0.0255443 0.0757271 0.0455986 0.0253181 0.0756272 0.0455192 0.0255122 0.0753769 0.0455035 
0.0259208 0.0750739 0.0455797 0.0267719 0.0746624 0.0458457 0.0278755 0.0742117 0.0463118 
0.0294137 0.0736936 0.0471225 0.0312201 0.0731554 0.0482957 0.0334154 0.0725882 0.0499944 
0.0358448 0.0720246 0.0522857 0.0385617 0.0714654 0.0553043 0.0413738 0.0709364 0.0592214 
0.0259432 0.0777139 0.0467739 0.0254242 0.0775052 0.0465876 0.0250798 0.0772272 0.0464227 
0.0251722 0.0767761 0.0463113 0.0254871 0.0762599 0.0462902 0.0262611 0.0756097 0.0464549 
0.0272966 0.0749006 0.046821 0.0287825 0.0740899 0.0475337 0.030546 0.0732258 0.0486135 
0.032712 0.0722845 0.0502256 0.0351215 0.0712927 0.0524386 0.0378297 0.0702389 0.0553891 
0.0406416 0.0691329 0.0592497 0.0257525 0.0799497 0.0480017 0.0250872 0.0795597 0.0477189 
0.0246025 0.079092 0.0474513 0.0245698 0.0784302 0.0472215 0.0247651 0.0776919 0.0470766 
0.025431 0.0767959 0.0471068 0.026362 0.075822 0.0473341 0.0277497 0.0747139 0.047901 
0.0294154 0.0735199 0.0488308 0.0314843 0.0722015 0.0502871 0.0337924 0.0707793 0.0523372 
0.0363943 0.0692297 0.0551159 0.0390914 0.0675463 0.0587893 0.0254175 0.0824035 0.0493606 
0.0245946 0.0818214 0.0489687 0.0239585 0.0811549 0.0485842 0.0237894 0.0802774 0.0482185 
0.0238525 0.0793143 0.0479305 0.0243949 0.0781745 0.0478028 0.0252028 0.0769409 0.0478653 
0.0264683 0.0755456 0.0482552 0.0280069 0.074036 0.0489992 0.0299415 0.0723607 0.0502569 
0.0321039 0.0705341 0.0520931 0.0345459 0.0685217 0.0546394 0.0370665 0.0663031 0.0580508 
0.0248732 0.0851733 0.0509096 0.0238765 0.0843836 0.05039 0.0230726 0.0835051 0.0498683 
0.0227509 0.0824046 0.0493413 0.0226636 0.0812126 0.0488822 0.0230601 0.0798321 0.0485631 
0.0237181 0.0783462 0.0484228 0.0248264 0.0766787 0.0485905 0.0261953 0.0748742 0.0490967 
0.0279418 0.0728711 0.0500936 0.029894 0.0706776 0.0516422 0.0320988 0.0682504 0.0538679 
0.0343532 0.0655577 0.0569091 0.0241389 0.0882088 0.0526493 0.0229632 0.0871931 0.0519832 
0.0219871 0.0860875 0.0513041 0.0215102 0.0847574 0.0505927 0.0212692 0.0833347 0.0499377 
0.0215146 0.0817208 0.0493992 0.0220147 0.0799957 0.0490263 0.0229534 0.078079 0.0489386 
0.0241356 0.0760099 0.0491706 0.0256708 0.0737199 0.0498661 0.0273845 0.0712102 0.0510819 
0.0293174 0.0684309 0.0529362 0.0312669 0.0653412 0.0555497 0.0231714 0.0915704 0.0546233 
0.0218104 0.090306 0.0537873 0.0206567 0.088955 0.0529261 0.0200215 0.0873872 0.0520017 
0.0196225 0.0857311 0.0511205 0.0197105 0.0838931 0.0503285 0.020043 0.081945 0.0496864 
0.0207966 0.0798074 0.0493023 0.0217714 0.0775109 0.0492155 0.0230668 0.0749841 0.0495598 
0.0245073 0.0722203 0.0503874 0.0261258 0.0691658 0.051808 0.027723 0.0657736 0.0539234 
0.0219402 0.0952304 0.0568786 0.0204019 0.0936852 0.0558425 0.0190807 0.0920623 0.0547679 
0.018302 0.0902454 0.0535972 0.0177595 0.088352 0.0524556 0.017704 0.0863008 0.0513744 
0.0178805 0.0841494 0.0504266 0.0184565 0.081825 0.0497087 0.0192277 0.0793447 0.0492655 
0.0202821 0.0766383 0.0492206 0.0214448 0.0736887 0.0496225 0.0227407 0.0704406 0.0505728 
0.0239768 0.0668408 0.052156 0.0240393 0.0691614 0.0408434 0.0240507 0.0697886 0.0409011 
0.0242093 0.0703992 0.040974 0.0247361 0.0709678 0.0410848 0.0254425 0.0715431 0.0412556 
0.0265192 0.0721321 0.0415502 0.027795 0.0727762 0.0419846 0.0294138 0.0735153 0.0426595 
0.0312287 0.0743911 0.0435996 0.0333278 0.0754651 0.044924 0.0355736 0.0767935 0.046692 
0.0379995 0.0784339 0.0490042 0.0404259 0.0804782 0.0519889 0.0246298 0.0703823 0.0413504 
0.0245926 0.0708798 0.0413566 0.0247122 0.0713535 0.0413817 0.025224 0.0717674 0.041454 
0.0259331 0.07218 0.0415967 0.027049 0.07259 0.0418847 0.0283933 0.073044 0.0423324 
0.0301306 0.0735737 0.043055 0.0321068 0.0742223 0.0440769 0.0344293 0.0750433 0.0455327 
0.0369553 0.0760918 0.0474893 0.0397311 0.0774195 0.0500605 0.0425739 0.0791165 0.0534009 
0.0251486 0.0716835 0.0419025 0.0250536 0.0720453 0.0418549 0.025125 0.0723752 0.0418289 
0.0256124 0.0726253 0.0418569 0.0263143 0.0728647 0.0419643 0.0274583 0.0730821 0.0422355 
0.0288581 0.0733297 0.0426842 0.0306984 0.0736294 0.0434387 0.0328178 0.0740259 0.0445238 
0.0353417 0.0745628 0.0460885 0.0381224 0.0752933 0.0482074 0.0412183 0.0762613 0.0510064 
0.0444448 0.0775515 0.0546654 0.0254881 0.0731858 0.0425672 0.0253123 0.0733966 0.04246 
0.0253124 0.0735654 0.0423747 0.0257523 0.0736292 0.0423442 0.026422 0.0736691 0.0423984 
0.027566 0.0736596 0.0426269 0.0289893 0.0736602 0.0430459 0.0308939 0.0736782 0.0437928 
0.0331109 0.0737605 0.044895 0.0357811 0.0739358 0.0465123 0.0387529 0.0742527 0.0487274 
0.0420948 0.0747434 0.0516762 0.0456229 0.0754782 0.0555608 0.0257335 0.0748142 0.0432923 
0.0254643 0.0748673 0.0431206 0.02538 0.0748678 0.0429698 0.0257581 0.0747371 0.0428716 
0.0263803 0.0745684 0.0428614 0.0275059 0.0743213 0.0430327 0.0289316 0.0740627 0.0434044 
0.0308741 0.0737843 0.0441215 0.0331575 0.0735345 0.0452139 0.0359352 0.0733266 0.0468504 
0.0390516 0.0732031 0.0491207 0.0425837 0.0731835 0.0521685 0.0463474 0.073321 0.0562139 
0.0257851 0.0767028 0.044142 0.0253962 0.0765842 0.0438954 0.0252004 0.0764017 0.0436665 
0.0254876 0.0760595 0.0434816 0.0260303 0.0756636 0.0433844 0.0270998 0.0751569 0.0434681 
0.0284841 0.0746138 0.0437564 0.0304104 0.0740081 0.0443975 0.0326955 0.07339 0.0454247 
0.0355009 0.072754 0.0470118 0.0386662 0.0721352 0.0492523 0.0422732 0.0715373 0.0522947 
0.0461361 0.0709905 0.0563672 0.0257164 0.0787697 0.0450761 0.0251931 0.0784711 0.0447471 
0.0248707 0.0780977 0.0444311 0.0250506 0.0775372 0.0441472 0.0254955 0.0769078 0.0439486 
0.026487 0.0761363 0.0439258 0.0278041 0.0753043 0.0441089 0.0296819 0.0743679 0.0446464 
0.0319297 0.0733785 0.0455753 0.0347141 0.0723124 0.0470716 0.0378693 0.0711965 0.0492309 
0.0414794 0.0700195 0.0522038 0.0453551 0.0687883 0.0562205 0.0254406 0.0811436 0.0461556 
0.0247576 0.0806507 0.0457312 0.0242823 0.0800728 0.0453126 0.0243266 0.0792822 0.0449085 
0.0246424 0.0784085 0.0445836 0.0255181 0.0773636 0.0444223 0.0267237 0.0762348 0.0444621 
0.0284973 0.0749617 0.0448486 0.0306407 0.0735961 0.045622 0.0333204 0.0720961 0.0469565 
0.0363637 0.0704805 0.048946 0.0398532 0.0687229 0.0517394 0.0435929 0.0668069 0.0555575 
0.0250104 0.0837527 0.0473552 0.024154 0.0830531 0.0468248 0.0235122 0.0822599 0.0462916 
0.0234068 0.0812328 0.0457516 0.0235777 0.0801109 0.0452829 0.0243185 0.0787937 0.0449612 
0.0253896 0.077373 0.0448329 0.0270295 0.0757738 0.0450379 0.0290325 0.0740472 0.0456202 
0.031562 0.0721359 0.0467496 0.0344383 0.0700504 0.0485167 0.0377402 0.0677513 0.0510666 
0.0412648 0.0652021 0.0546054 0.0243563 0.0867028 0.048729 0.0233069 0.0857784 0.0480772 
0.0224786 0.0847545 0.047412 0.0222031 0.0834815 0.0467136 0.0222063 0.0821058 0.0460755 
0.0227844 0.0805182 0.0455617 0.0236877 0.0788122 0.0452292 0.0251511 0.0769023 0.0452087 
0.0269614 0.0748372 0.0455482 0.0292746 0.072547 0.0464096 0.031904 0.070035 0.0478782 
0.0349215 0.0672509 0.0500917 0.0381162 0.0641432 0.0532344 0.0234967 0.0899459 0.0502746 
0.0222467 0.0887752 0.0494861 0.021225 0.0875023 0.0486723 0.0207744 0.0859742 0.0477953 
0.020604 0.0843402 0.0469661 0.0210113 0.082488 0.0462352 0.0217358 0.080509 0.0456708 
0.0230065 0.0783118 0.0453934 0.024603 0.07594 0.0454552 0.0266718 0.0733153 0.0460088 
0.0290201 0.0704337 0.0471336 0.0317116 0.0672368 0.0489592 0.0345302 0.0636623 0.0516463 
0.0223848 0.0935487 0.0520312 0.020925 0.092105 0.0510871 0.0197017 0.090561 0.0501041 
0.0190698 0.0887663 0.049024 0.0187182 0.0868688 0.047977 0.018945 0.084759 0.046998 
0.0194771 0.082522 0.0461682 0.0205352 0.0800659 0.0455952 0.0218919 0.0774267 0.0453364 
0.0236816 0.0745221 0.0455333 0.025707 0.0713407 0.0462589 0.0280218 0.0678196 0.0476333 
0.0304071 0.0638909 0.0497918 0.0209832 0.0974944 0.0540369 0.0193195 0.0957391 0.0529127 
0.0179026 0.0938915 0.051735 0.0171024 0.0918131 0.0504234 0.0165827 0.0896425 0.0491291 
0.0166414 0.087282 0.0478703 0.0169916 0.0848031 0.0467423 0.0178437 0.0821202 0.0458395 
0.0189642 0.0792566 0.0452253 0.0204736 0.0761312 0.0450298 0.0221725 0.072723 0.0453208 
0.0241039 0.0689676 0.0462091 0.026051 0.0647929 0.0478071 0.0240861 0.069591 0.0397947 
0.0241024 0.0701654 0.0397126 0.0242819 0.0707279 0.0396396 0.0248693 0.0712604 0.0395895 
0.0256643 0.0718117 0.0395953 0.0268877 0.0724017 0.0397164 0.0283552 0.073069 0.0399776 
0.0302433 0.0738694 0.0404802 0.0323932 0.0748429 0.0412577 0.0349227 0.0760674 0.0424338 
0.0376858 0.0776058 0.0440824 0.0407357 0.0795293 0.046311 0.0438864 0.0819552 0.0492781 
0.0246263 0.0708857 0.0402096 0.0245967 0.0713285 0.0400723 0.0247423 0.0717505 0.0399471 
0.0253261 0.0721204 0.039852 0.0261387 0.0724988 0.0398224 0.0274234 0.0728943 0.039928 
0.0289865 0.0733527 0.0401935 0.0310291 0.0739195 0.0407343 0.0333844 0.0746379 0.0415859 
0.0361929 0.0755762 0.042888 0.0393058 0.0767973 0.0447255 0.042792 0.0783656 0.0472199 
0.0464688 0.0803969 0.0505632 0.0250932 0.072264 0.0406636 0.025007 0.0725679 0.0404688 
0.025108 0.0728413 0.040288 0.0256767 0.0730384 0.0401421 0.0264948 0.0732319 0.04007 
0.0278271 0.0734178 0.04015 0.0294703 0.0736494 0.0404077 0.0316486 0.0739597 0.0409715 
0.0341875 0.0743953 0.041879 0.0372491 0.0750124 0.043285 0.0406814 0.0758727 0.0452851 
0.0445688 0.0770312 0.0480141 0.0487325 0.0785973 0.0516958 0.025377 0.0738512 0.0412155 
0.0252076 0.0739982 0.0409572 0.0252367 0.0741027 0.0407124 0.0257621 0.0741012 0.0405015 
0.0265553 0.0740801 0.040369 0.0279007 0.0740184 0.0403981 0.0295849 0.0739782 0.0406179 
0.0318524 0.0739752 0.0411661 0.0345206 0.0740586 0.0420844 0.03777 0.0742675 0.0435391 
0.0414464 0.0746576 0.0456362 0.0456468 0.0752699 0.0485218 0.0501989 0.0761946 0.0524473 
0.0255629 0.0755706 0.0418222 0.0252957 0.0755529 0.0414959 0.0252378 0.0754805 0.0411814 
0.0257033 0.0752711 0.0408967 0.0264532 0.0750251 0.0406932 0.0277901 0.0747039 0.0406571 
0.0294901 0.0743783 0.0408219 0.0318155 0.0740453 0.0413326 0.0345759 0.0737568 0.0422348 
0.0379669 0.0735328 0.0437047 0.0418312 0.0734217 0.0458568 0.0462765 0.0734493 0.0488463 
0.0511346 0.0736823 0.052947 0.0255472 0.0775627 0.042542 0.025152 0.0773644 0.0421383 
0.0249758 0.0770981 0.0417424 0.0253469 0.0766615 0.0413658 0.0260159 0.0761698 0.0410695 
0.0272994 0.0755644 0.0409388 0.0289633 0.0749253 0.0410131 0.0312826 0.0742281 0.0414407 
0.0340582 0.0735267 0.0422717 0.0374954 0.0728191 0.0436876 0.041432 0.0721432 0.0458081 
0.0459816 0.0715065 0.0487934 0.0509756 0.0709437 0.0529277 0.0254052 0.0797431 0.0433393 
0.0248652 0.0793549 0.042852 0.024553 0.0788859 0.0423669 0.0248104 0.0782145 0.0418872 
0.025377 0.07747 0.0414847 0.0265812 0.0765745 0.0412415 0.0281787 0.0756167 0.0412042 
0.0304535 0.0745514 0.0415217 0.0331978 0.0734337 0.0422485 0.036623 0.0722399 0.0435686 
0.0405602 0.0709975 0.0456045 0.0451258 0.0696954 0.0485189 0.0501471 0.0683368 0.0525981 
0.0250459 0.0822478 0.0442702 0.0243318 0.0816539 0.0436884 0.0238533 0.0809669 0.0431008 
0.0239638 0.0800474 0.0424986 0.024391 0.0790378 0.0419668 0.0254713 0.0778423 0.0415804 
0.0269499 0.0765569 0.041395 0.0291143 0.0751166 0.0415558 0.0317475 0.0735767 0.0421215 
0.0350603 0.0718925 0.0432742 0.0388745 0.0700804 0.0451343 0.0433041 0.0681112 0.0478628 
0.0481655 0.0659566 0.0517343 0.0245235 0.0850032 0.0453101 0.0236194 0.0841898 0.0446256 
0.0229583 0.0832729 0.0439258 0.0229049 0.0820978 0.0431877 0.0231737 0.0808184 0.0425111 
0.0241071 0.0793236 0.0419615 0.0254392 0.0777152 0.0416047 0.0274581 0.075911 0.0415797 
0.029937 0.0739658 0.0419495 0.033083 0.0718163 0.0428915 0.0367077 0.0694686 0.0445225 
0.0409198 0.0668777 0.046999 0.0455231 0.0639889 0.0505774 0.0237648 0.0881221 0.0465082 
0.0226474 0.0870692 0.0457091 0.0217801 0.0859052 0.044883 0.0215381 0.0844635 0.0439894 
0.021621 0.0829072 0.0431455 0.0223741 0.0811144 0.0424038 0.0235199 0.0791897 0.0418416 
0.0253422 0.0770379 0.0415887 0.0276045 0.0747118 0.0417121 0.0305047 0.0721331 0.0423811 
0.0338433 0.0692994 0.0437055 0.0377198 0.0661528 0.0458341 0.0419225 0.0626192 0.0489956 
0.0227877 0.091558 0.047858 0.021447 0.0902413 0.046933 0.0203641 0.0888094 0.045968 
0.0199259 0.0870898 0.0449027 0.0198142 0.0852504 0.0438732 0.0203759 0.0831641 0.0429175 
0.021321 0.0809347 0.0421256 0.0229266 0.0784591 0.0416158 0.0249466 0.0757861 0.04146 
0.0275675 0.0728266 0.0418176 0.0305796 0.0695706 0.042791 0.0340717 0.0659508 0.0445201 
0.0378191 0.0618799 0.0472043 0.0215424 0.0953829 0.0493941 0.0199662 0.0937726 0.0483294 
0.0186564 0.0920476 0.0472098 0.0180126 0.0900359 0.0459529 0.0176955 0.0879057 0.0447156 
0.0180522 0.0855314 0.0435189 0.018779 0.0830117 0.0424672 0.0201431 0.0802417 0.041665 
0.0218894 0.0772632 0.0411899 0.0241899 0.0739824 0.041189 0.0268258 0.0703823 0.0417571 
0.0298737 0.0663903 0.0430233 0.0330985 0.0619143 0.0451559 0.0199858 0.0995898 0.0511434 
0.0181777 0.0976417 0.0499213 0.0166468 0.0955857 0.048628 0.0158085 0.0932596 0.0471568 
0.015297 0.0908247 0.0456878 0.0154597 0.0881653 0.0442235 0.0159771 0.0853683 0.042884 
0.0171054 0.0823342 0.0417593 0.0185808 0.0790933 0.0409338 0.0205592 0.0755526 0.0405419 
0.0228162 0.0716866 0.0406722 0.025415 0.0674213 0.041443 0.0281164 0.0626624 0.0429948 
0.0239384 0.0699085 0.0386577 0.0239413 0.0704264 0.0384046 0.0241245 0.0709357 0.0381511 
0.0247586 0.0714234 0.0378966 0.0256309 0.0719403 0.0376886 0.0269946 0.0725175 0.0375765 
0.0286524 0.0731932 0.0375964 0.0308164 0.0740384 0.037844 0.0333174 0.0750949 0.0383638 
0.036307 0.0764576 0.0392781 0.0396359 0.078201 0.0406756 0.0433815 0.0804117 0.042666 
0.0473633 0.0832424 0.0454366 0.0244244 0.0712587 0.038979 0.024382 0.071642 0.0386654 
0.0245344 0.0720063 0.0383531 0.0251741 0.0723232 0.0380441 0.026077 0.0726566 0.0377899 
0.0275229 0.0730243 0.0376486 0.0293029 0.0734733 0.0376583 0.0316584 0.0740622 0.037928 
0.0344117 0.0748376 0.0385061 0.0377419 0.0758832 0.0395312 0.0415 0.0772745 0.0411058 
0.0457834 0.0790898 0.0433548 0.0504251 0.0814806 0.046505 0.0248355 0.0726967 0.0393335 
0.0247357 0.0729374 0.0389569 0.024845 0.0731479 0.0385825 0.0254769 0.0732827 0.0382134 
0.0263961 0.0734197 0.0379059 0.027908 0.0735613 0.0377257 0.0297922 0.0737639 0.0377136 
0.0323174 0.0740715 0.0379908 0.0352978 0.074535 0.03861 0.0389383 0.0752244 0.039725 
0.0430903 0.0762134 0.0414518 0.0478702 0.0775702 0.0439293 0.053125 0.0794377 0.0474224 
0.0250593 0.0743543 0.0397708 0.0248719 0.0744327 0.0393253 0.0249069 0.0744671 0.0388803 
0.025498 0.0743915 0.038437 0.0263981 0.0742996 0.0380589 0.0279356 0.0741737 0.0378155 
0.0298783 0.0740808 0.0377527 0.0325189 0.0740446 0.0380009 0.0356634 0.0741191 0.0386182 
0.0395385 0.0743542 0.0397707 0.0439963 0.0748161 0.0415871 0.0491693 0.0755562 0.0442181 
0.0549201 0.0766916 0.047962 0.0251824 0.0761504 0.0402575 0.0248908 0.0760582 0.039739 
0.0248343 0.0759077 0.0392185 0.0253654 0.0756119 0.0386928 0.0262252 0.0752799 0.0382341 
0.0277631 0.0748738 0.037914 0.0297352 0.0744705 0.0377842 0.032455 0.074072 0.0379823 
0.03572 0.0737355 0.038572 0.0397753 0.0734885 0.0397295 0.0444717 0.0733877 0.0415941 
0.049955 0.0734661 0.0443265 0.0560993 0.073809 0.0482515 0.0250978 0.0782319 0.0408457 
0.0246678 0.0779521 0.0402465 0.0244841 0.0775989 0.0396399 0.0249156 0.077062 0.039015 
0.0256917 0.0764676 0.0384554 0.0271781 0.0757544 0.0380305 0.0291194 0.07501 0.0378 
0.0318438 0.0742118 0.0379046 0.0351392 0.0734185 0.0384136 0.0392624 0.0726322 0.039509 
0.044059 0.0718953 0.0413367 0.0496821 0.0712189 0.0440629 0.056008 0.0706446 0.0480249 
0.0248829 0.0805103 0.0415049 0.0242954 0.0800334 0.0408202 0.0239643 0.0794682 0.0401214 
0.024274 0.0786824 0.0393875 0.0249414 0.077818 0.0387149 0.0263464 0.0767917 0.0381689 
0.0282214 0.0757008 0.0378181 0.0309058 0.0744987 0.0378035 0.0341769 0.073245 0.0382001 
0.0382989 0.0719167 0.039193 0.0431091 0.0705417 0.0409314 0.0487641 0.0691095 0.0435845 
0.055135 0.0676181 0.0474924 0.0244439 0.0831277 0.0422864 0.0236657 0.0824373 0.0415079 
0.0231526 0.0816445 0.0407062 0.023302 0.0805959 0.0398465 0.0238179 0.0794489 0.0390405 
0.0250897 0.078099 0.0383453 0.0268374 0.0766523 0.0378401 0.0294049 0.0750388 0.0376622 
0.0325577 0.0733187 0.0378919 0.0365593 0.0714437 0.0387125 0.0412341 0.0694274 0.0402714 
0.0467352 0.0672373 0.0427363 0.0529159 0.064829 0.0464329 0.023837 0.086007 0.0431657 
0.0228496 0.0850889 0.0422882 0.0221355 0.0840562 0.0413769 0.0221045 0.0827371 0.0403808 
0.0224465 0.0813026 0.0394286 0.0235578 0.0796302 0.038567 0.0251459 0.0778329 0.0378868 
0.027555 0.0758207 0.0375191 0.0305387 0.0736529 0.0375493 0.0343553 0.0712597 0.0381565 
0.0388146 0.0686413 0.0394838 0.0440628 0.0657465 0.0416947 0.0499313 0.0624952 0.0450931 
0.0229868 0.089266 0.0441867 0.0217633 0.0880996 0.0432028 0.0208206 0.0868092 0.042172 
0.0205801 0.0852084 0.0410243 0.0207157 0.0834795 0.0399075 0.021627 0.0814861 0.0388544 
0.0230084 0.079346 0.0379693 0.0251991 0.076953 0.0373732 0.0279397 0.0743651 0.0371569 
0.0314777 0.0714945 0.0374911 0.0356056 0.0683312 0.0385111 0.0404574 0.0648087 0.0403727 
0.0458367 0.0608218 0.0433468 0.0219118 0.0928574 0.0453365 0.0204394 0.0914173 0.0442402 
0.0192562 0.0898473 0.0430826 0.0187956 0.0879525 0.041772 0.0187129 0.0859221 0.0404774 
0.0194098 0.0836123 0.0392159 0.0205662 0.0811413 0.0381059 0.0225138 0.0783931 0.0372569 
0.0249806 0.0754219 0.0367652 0.0282001 0.0721273 0.0367916 0.0319487 0.0684909 0.0374628 
0.0363465 0.064435 0.0389256 0.0411721 0.0598387 0.0414161 0.0205606 0.0968568 0.0466445 
0.0188241 0.0951117 0.0454284 0.0173855 0.0932355 0.0441349 0.0166919 0.0910313 0.0426477 
0.0163766 0.088691 0.0411593 0.0168412 0.08607 0.0396682 0.0177502 0.0832831 0.038309 
0.0194245 0.0802108 0.0371769 0.0215795 0.0769014 0.0363744 0.0244316 0.0732485 0.0360501 
0.0277422 0.0692271 0.0363218 0.0316154 0.0647536 0.0373249 0.0358079 0.059703 0.039259 
0.0188874 0.101264 0.0481202 0.0168875 0.0991662 0.0467756 0.0151967 0.0969425 0.0453358 
0.0142786 0.0944034 0.0436579 0.013739 0.091736 0.0419598 0.0139799 0.088804 0.0402199 
0.0146484 0.0857123 0.0385907 0.0160531 0.0823454 0.0371518 0.0178977 0.0787418 0.0360137 
0.0203801 0.0747951 0.0353114 0.02325 0.0704734 0.0351558 0.0265957 0.0656916 0.035671 
0.0301594 0.0603254 0.0370237 0.0236778 0.0701717 0.0375231 0.0236533 0.070629 0.0370861 
0.0238263 0.0710801 0.0366374 0.0244931 0.0715155 0.0361593 0.0254288 0.0719894 0.035715 
0.0269192 0.0725425 0.0353405 0.028754 0.0732141 0.0350852 0.0311817 0.0740896 0.0350349 
0.0340232 0.0752137 0.0352457 0.0374647 0.0766983 0.0358349 0.0413563 0.0786312 0.036904 
0.0458002 0.0811141 0.0385624 0.0506276 0.0843387 0.04102 0.0241059 0.0715697 0.0377497 
0.0240353 0.0718892 0.0372456 0.0241792 0.0721906 0.0367301 0.024859 0.0724468 0.036186 
0.0258366 0.0727268 0.0356825 0.0274284 0.0730557 0.0352625 0.0294108 0.0734833 0.0349791 
0.0320659 0.0740811 0.0349309 0.0352062 0.0748995 0.0351794 0.0390501 0.0760381 0.035858 
0.0434517 0.0775859 0.0370848 0.0485379 0.0796361 0.0389842 0.0541652 0.0823787 0.0418112 
0.0244576 0.0730603 0.0380038 0.0243274 0.0732335 0.0374301 0.024428 0.0733759 0.0368444 
0.0251058 0.0734408 0.0362289 0.0261091 0.0735128 0.0356594 0.0277839 0.0735997 0.0351846 
0.0298933 0.0737622 0.0348622 0.0327513 0.0740548 0.0348023 0.0361619 0.0745338 0.0350724 
0.0403738 0.0752828 0.0358211 0.0452454 0.0763894 0.0371822 0.0509264 0.0779348 0.0392948 
0.0572994 0.0800987 0.0424564 0.0246182 0.0747826 0.0383264 0.0243944 0.0747884 0.0376772 
0.0244169 0.0747478 0.0370132 0.0250548 0.0745911 0.0363123 0.0260435 0.0744204 0.0356597 
0.0277552 0.0742208 0.0351068 0.02994 0.0740649 0.034718 0.0329394 0.0739844 0.034612 
0.036549 0.0740391 0.0348637 0.0410435 0.07429 0.0356339 0.0462846 0.0748147 0.0370713 
0.0524421 0.0756755 0.0393273 0.0594251 0.0770187 0.042737 0.0246756 0.0766497 0.0386935 
0.0243397 0.0764797 0.0379655 0.0242646 0.0762471 0.0372187 0.0248412 0.0758584 0.0364249 
0.0257912 0.0754333 0.0356801 0.0275115 0.0749335 0.0350362 0.0297385 0.0744433 0.0345658 
0.0328383 0.0739698 0.0343938 0.0365971 0.073576 0.0346027 0.0413115 0.0732977 0.0353638 
0.046844 0.0732003 0.0368378 0.0533805 0.0733247 0.039187 0.0608499 0.0737766 0.0427761 
0.0245202 0.0788157 0.0391523 0.024034 0.0784522 0.0383388 0.0238212 0.0780091 0.0375 
0.0242918 0.0773666 0.0365979 0.025154 0.0766634 0.0357418 0.0268241 0.075835 0.0349806 
0.0290251 0.0749777 0.0343967 0.0321406 0.0740705 0.0341179 0.0359458 0.073178 0.0342339 
0.0407512 0.0723067 0.0349223 0.0464137 0.0715041 0.0363516 0.0531283 0.0707855 0.0386902 
0.060829 0.0701998 0.0423171 0.0242317 0.0811865 0.0396767 0.0235738 0.0806202 0.0387747 
0.0232007 0.0799573 0.0378392 0.0235399 0.0790532 0.0368204 0.0242862 0.0780645 0.0358426 
0.0258719 0.0769015 0.0349494 0.0280067 0.0756716 0.034234 0.0310869 0.0743265 0.0338246 
0.0348758 0.0729317 0.0338179 0.039692 0.0714648 0.0343952 0.045383 0.0699548 0.0357292 
0.0521477 0.068392 0.0379921 0.0599135 0.066769 0.0415659 0.0237142 0.0839101 0.0403143 
0.0228473 0.0831245 0.0393181 0.022275 0.0822264 0.038278 0.0224393 0.0810469 0.0371283 
0.023021 0.0797602 0.0360109 0.0244637 0.0782521 0.0349604 0.0264628 0.0766404 0.0340823 
0.0294201 0.0748501 0.0335013 0.0330844 0.0729468 0.0333206 0.0377739 0.0708795 0.0337205 
0.0433184 0.0686588 0.0348725 0.0499124 0.0662495 0.0369474 0.0574574 0.0635894 0.0403115 
0.0230262 0.0869042 0.04104 0.0219292 0.0858855 0.0399477 0.021136 0.08474 0.0387994 
0.0211021 0.0832779 0.0375112 0.0214934 0.0816887 0.0362446 0.0227616 0.0798376 0.0350225 
0.0245877 0.0778505 0.0339641 0.0273745 0.0756293 0.033188 0.0308555 0.0732388 0.0328039 
0.0353433 0.070603 0.0329882 0.0406475 0.0677162 0.0339084 0.0469538 0.0645215 0.0357318 
0.054131 0.0609109 0.0388 0.022091 0.0902908 0.0418936 0.0207334 0.0890186 0.0407021 
0.0196877 0.0876083 0.0394404 0.019422 0.0858528 0.0380029 0.0195854 0.083955 0.036573 
0.0206336 0.0817637 0.0351587 0.0222325 0.0794105 0.0338946 0.0247796 0.0767789 0.0328893 
0.0279921 0.0739324 0.0322589 0.0321696 0.0707742 0.0321722 0.0370975 0.0672865 0.0327888 
0.0429466 0.0633943 0.0342683 0.0495427 0.0589589 0.0369157 0.0209284 0.0940195 0.0428547 
0.0192948 0.0924681 0.0415638 0.017982 0.0907711 0.0401867 0.017471 0.0887098 0.0385942 
0.0173915 0.0864966 0.0369933 0.0182017 0.0839699 0.0353751 0.0195512 0.081264 0.0338907 
0.0218293 0.0782496 0.0326366 0.024737 0.0749873 0.031736 0.0285576 0.0713655 0.0313479 
0.0330537 0.0673571 0.0316233 0.0383788 0.0628742 0.0327128 0.0443191 0.0577596 0.0348827 
0.0194865 0.0981681 0.0439478 0.0175583 0.096306 0.0425569 0.0159603 0.0942953 0.0410621 
0.0151876 0.0919129 0.0393077 0.0148468 0.0893759 0.0375265 0.0153968 0.08652 0.03569 
0.0164696 0.0834777 0.0339673 0.0184427 0.0801143 0.0324405 0.021001 0.0764857 0.0312402 
0.0244079 0.0724725 0.0305134 0.028404 0.0680419 0.0304015 0.0331232 0.0630992 0.0310442 
0.0383158 0.0574839 0.032667 0.0177185 0.10274 0.0451627 0.0154937 0.100517 0.0436727 
0.0136106 0.09815 0.0420595 0.0125817 0.0954188 0.040138 0.0119854 0.0925389 0.0381695 
0.0122814 0.0893524 0.036104 0.0130819 0.0859835 0.0341305 0.0147515 0.0823007 0.0323152 
0.0169598 0.0783511 0.0307974 0.0199493 0.0740149 0.029711 0.0234426 0.0692537 0.0291898 
0.0275544 0.0639709 0.0293621 0.0320089 0.0580103 0.030417 0.0231839 0.0703229 0.0363934 
0.0231036 0.0707112 0.0357462 0.0232378 0.0710936 0.0350719 0.0239084 0.0714614 0.03433 
0.0248789 0.0718742 0.033603 0.0264677 0.07238 0.0329065 0.0284523 0.0730217 0.0323056 
0.0311182 0.0738976 0.0318692 0.0342784 0.075058 0.0316653 0.0381552 0.076631 0.0317985 
0.0426026 0.078721 0.0323803 0.0477505 0.0814456 0.0335125 0.0534536 0.0850415 0.0354172 
0.0235468 0.0717528 0.0365228 0.0234165 0.0719997 0.0357992 0.0235198 0.0722275 0.0350472 
0.0242075 0.0724074 0.0342242 0.0252278 0.072616 0.0334204 0.0269341 0.0728837 0.0326565 
0.0290889 0.0732656 0.0320032 0.0320162 0.0738442 0.0315405 0.0355206 0.0746772 0.0313436 
0.0398619 0.0758789 0.0315324 0.0449033 0.0775557 0.0322358 0.0508038 0.0798155 0.033571 
0.0574594 0.0828938 0.0358061 0.0238319 0.0732813 0.0366746 0.0236365 0.0733781 0.0358724 
0.0236934 0.0734414 0.0350394 0.0243814 0.073421 0.0341297 0.0254335 0.0734108 0.0332426 
0.0272369 0.0734215 0.0324024 0.0295393 0.0735209 0.0316865 0.0327009 0.0737729 0.0311848 
0.0365182 0.0742417 0.0309807 0.0412863 0.0750246 0.0312079 0.0468769 0.0762256 0.0320128 
0.053477 0.0779399 0.0335267 0.0610237 0.0803899 0.0360622 0.0239224 0.0750563 0.0368825 
0.0236244 0.0749815 0.0359957 0.0235961 0.074856 0.0350737 0.0242423 0.0746036 0.0340636 
0.0252815 0.0743379 0.0330768 0.027131 0.0740445 0.0321379 0.0295238 0.0738047 0.0313339 
0.0328523 0.0736571 0.0307618 0.0369042 0.0736696 0.0305143 0.0420048 0.0739145 0.0307374 
0.0480331 0.0744835 0.0315932 0.0552001 0.0754503 0.0332255 0.0634843 0.0769956 0.0359863 
0.0239083 0.0769833 0.0371314 0.0234871 0.0767285 0.0361575 0.0233521 0.0764052 0.0351426 
0.0239326 0.0759104 0.0340253 0.0249322 0.0753775 0.0329301 0.0267963 0.0747659 0.0318808 
0.029243 0.0741702 0.0309744 0.0326929 0.0736017 0.0303139 0.0369235 0.0731318 0.0300011 
0.0422862 0.0728047 0.0301923 0.0486629 0.0726967 0.0310635 0.0562842 0.0728574 0.0327692 
0.0651593 0.0734161 0.0356923 0.0236783 0.0792235 0.0374648 0.0230917 0.0787718 0.0363985 
0.0228056 0.0782323 0.0352829 0.0232707 0.0774734 0.0340441 0.0241762 0.0766491 0.0328231 
0.02599 0.0756901 0.0316389 0.0284148 0.074704 0.0306009 0.0318921 0.0736713 0.0298147 
0.0361866 0.0726646 0.0293912 0.0416661 0.0716954 0.0294937 0.0482069 0.0708174 0.030307 
0.0560502 0.0700513 0.0319927 0.0652142 0.0694544 0.0349487 0.0233147 0.0816753 0.0378612 
0.0225388 0.0810179 0.0367009 0.0220765 0.080254 0.0354816 0.022398 0.0792238 0.0341145 
0.0231779 0.0781016 0.032759 0.0249033 0.0767898 0.0314269 0.0272613 0.0754086 0.0302414 
0.030709 0.073908 0.0293081 0.0349967 0.0723612 0.0287473 0.0405023 0.0707474 0.0287264 
0.04709 0.0690974 0.0294361 0.0550059 0.0674031 0.0310424 0.0642599 0.0656507 0.0339464 
0.0227212 0.0844914 0.0383659 0.0217147 0.0836134 0.0371089 0.0210327 0.0826109 0.0357806 
0.0211621 0.081297 0.0342738 0.0217623 0.0798656 0.0327686 0.0233336 0.0781918 0.0312666 
0.0255474 0.0764074 0.029906 0.0288674 0.0744326 0.0287891 0.0330263 0.0723402 0.0280449 
0.0384018 0.0700773 0.0278411 0.0448348 0.0676518 0.0283682 0.0525659 0.0650268 0.0297925 
0.0615677 0.0621191 0.0324987 0.021959 0.0875817 0.0389529 0.0206982 0.0864707 0.0376005 
0.0197722 0.085219 0.036163 0.019683 0.0836156 0.0345123 0.0200742 0.0818724 0.0328513 
0.0214561 0.0798405 0.0311686 0.0234832 0.0776615 0.0296192 0.0266217 0.0752293 0.0282992 
0.0305851 0.0726159 0.0273464 0.0357449 0.0697399 0.0269263 0.0419151 0.0665897 0.0272265 
0.0493252 0.0631029 0.0284108 0.0579004 0.0591398 0.0308389 0.0209522 0.0910697 0.0396592 
0.0194029 0.0897074 0.0382133 0.0181974 0.0881911 0.0366661 0.0178514 0.0862901 0.0348656 
0.017991 0.0842312 0.0330397 0.019132 0.0818468 0.0311611 0.0209114 0.0792858 0.0294027 
0.02379 0.0764205 0.0278515 0.0274612 0.0733219 0.0266538 0.0322814 0.069885 0.0259687 
0.0380317 0.0660836 0.0259775 0.0449236 0.061835 0.0268378 0.0528191 0.0569613 0.0288716 
0.0197234 0.0948981 0.0404549 0.0178676 0.0932604 0.0389213 0.0163651 0.0914594 0.0372689 
0.015746 0.0892498 0.0353192 0.0156158 0.0868704 0.0333271 0.0164942 0.0841408 0.0312474 
0.0179993 0.0812136 0.0292722 0.020584 0.0779463 0.027477 0.0239206 0.0744073 0.026017 