# vtk DataFile Version 2.0
vtk output
ASCII
DATASET RECTILINEAR_GRID
DIMENSIONS 13 13 13
X_COORDINATES 13 float
-5 -4.79167 -4.58333 -4.375 -4.16667 -3.95833 -3.75 -3.54167 -3.33333 
-3.125 -2.91667 -2.70833 -2.5 
Y_COORDINATES 13 float
0 0.208333 0.416667 0.625 0.833333 1.04167 1.25 1.45833 1.66667 
1.875 2.08333 2.29167 2.5 
Z_COORDINATES 13 float
5 5.20833 5.41667 5.625 5.83333 6.04167 6.25 6.45833 6.66667 
6.875 7.08333 7.29167 7.5 
POINT_DATA 2197
VECTORS grad float
0.0797488 0.0550078 0.0470053 0.0781625 0.049147 0.0454062 0.075634 0.0433373 0.0439278 
0.0722722 0.0375729 0.0425562 0.0682683 0.0319452 0.0412622 0.063783 0.02642 0.0400263 
0.0590328 0.0211305 0.0387827 0.054115 0.0159904 0.0375342 0.0493305 0.0112153 0.0361894 
0.0446167 0.00663428 0.0347933 0.040385 0.00254941 0.0332408 0.036366 -0.00131653 0.0316193 
0.033068 -0.00460455 0.0298273 0.0739745 0.0557111 0.041113 0.0723641 0.0506575 0.0398239 
0.0698703 0.0455277 0.0385893 0.066595 0.0403306 0.0374029 0.0627229 0.0351073 0.0362538 
0.0584034 0.0298644 0.0351327 0.053868 0.0246814 0.0339949 0.0491957 0.0195364 0.0328464 
0.0447074 0.0146012 0.0316155 0.0403168 0.00977742 0.0303409 0.036444 0.00534723 0.0289322 
0.0327996 0.00109065 0.0274642 0.029878 -0.00262202 0.0258411 0.0698369 0.0565256 0.0355592 
0.0680186 0.0523429 0.0344173 0.0653304 0.0479509 0.0333058 0.0618727 0.0433738 0.0322211 
0.0578436 0.0385685 0.0311694 0.053386 0.0335922 0.0301425 0.0487782 0.02845 0.0291134 
0.0440754 0.0232027 0.028083 0.0396618 0.0179809 0.0269927 0.0354019 0.0127725 0.0258706 
0.0317719 0.0078645 0.0246318 0.0284197 0.00308908 0.0233415 0.0258655 -0.00113262 0.0218998 
0.0658082 0.0573804 0.030016 0.0637714 0.0540768 0.0290104 0.0608732 0.0504298 0.028013 
0.0572129 0.0464789 0.0270228 0.0530036 0.0420932 0.026064 0.0483828 0.0373812 0.0251286 
0.0436791 0.0322711 0.0242082 0.0389231 0.026909 0.0232973 0.0345676 0.0213839 0.0223504 
0.0304249 0.0157723 0.0213844 0.0270319 0.0103691 0.0203193 0.0239698 0.00505779 0.0192105 
0.0217873 0.000315114 0.0179533 0.0634481 0.058855 0.0246358 0.0610323 0.056555 0.0235983 
0.0576844 0.0537626 0.0225776 0.0535117 0.0505348 0.0215717 0.0487687 0.0465904 0.0206355 
0.0435978 0.0421086 0.0197518 0.038436 0.0368981 0.0189381 0.03328 0.0312261 0.0181688 
0.0287273 0.0251448 0.0174094 0.0244951 0.0188459 0.0166551 0.0212521 0.0126792 0.0158208 
0.0184455 0.00657081 0.0149511 0.016701 0.00112415 0.0139248 0.0613002 0.0604154 0.0192403 
0.0584899 0.0591471 0.0181463 0.0546609 0.0572359 0.0170806 0.0499308 0.0547561 0.01604 
0.0445983 0.0512626 0.0151148 0.038814 0.0470091 0.0142761 0.0331353 0.0416751 0.0135708 
0.0275235 0.035657 0.0129499 0.0227364 0.0289717 0.0123892 0.0183874 0.021932 0.0118604 
0.0152898 0.0149523 0.0112704 0.0127442 0.00799904 0.0106533 0.0114599 0.00181597 0.00986858 
0.0610197 0.0627304 0.0137099 0.0576786 0.0627421 0.0123422 0.0530933 0.0619451 0.0110415 
0.0474073 0.0604329 0.00979991 0.0409961 0.0574751 0.00878168 0.0340409 0.0534329 0.00793096 
0.0273279 0.0477732 0.00734818 0.0207681 0.041089 0.00693509 0.0154192 0.0333802 0.0066728 
0.0107136 0.0251271 0.00649063 0.0077213 0.0168987 0.00626391 0.00548487 0.00868121 0.00601755 
0.00485587 0.00147628 0.00556882 0.0611194 0.0650928 0.00809142 0.0572363 0.0664442 0.00639259 
0.0518421 0.0668252 0.00480311 0.045111 0.0663478 0.00331037 0.0375002 0.0639583 0.00216897 
0.0292295 0.0601349 0.00129107 0.0213492 0.0541051 0.000841198 0.0137162 0.0466779 0.000662408 
0.00773119 0.037847 0.000736488 0.00262168 0.0282705 0.000944906 -0.000257436 0.018697 0.00112014 
-0.00215255 0.0091247 0.00128073 -0.00205868 0.000839916 0.00119411 0.0634998 0.0677398 0.00194398 
0.0590084 0.0707895 -0.000430923 0.0524898 0.0727305 -0.0026309 0.044178 0.0736905 -0.00467616 
0.0346417 0.0720669 -0.00612162 0.0241873 0.0685055 -0.00711723 0.014343 0.06184 -0.00737189 
0.00488534 0.0532085 -0.00715728 -0.00218185 0.042664 -0.00651937 -0.00797911 0.0311032 -0.00565659 
-0.0106978 0.0196057 -0.00484761 -0.0120583 0.00813614 -0.00406236 -0.0108365 -0.0015765 -0.00363027 
0.0664973 0.0700992 -0.00440315 0.0614272 0.0748921 -0.0075829 0.0537191 0.0784677 -0.0105241 
0.0436774 0.0809667 -0.0132544 0.031981 0.0801684 -0.0150817 0.0190436 0.0768973 -0.016232 
0.0069654 0.0695443 -0.0162527 -0.00456856 0.0596061 -0.0155581 -0.0128486 0.0472311 -0.0142489 
-0.0194001 0.0335615 -0.0126132 -0.0219149 0.02004 -0.0110816 -0.0226489 0.00658392 -0.00959595 
-0.0201439 -0.00461199 -0.00860038 0.0722375 0.0711805 -0.0116377 0.0667202 0.0779155 -0.0161947 
0.0575329 0.0834585 -0.0204583 0.0450992 0.0879472 -0.0244622 0.030199 0.0882389 -0.0270176 
0.0134489 0.0853828 -0.0284866 -0.00206338 0.0771123 -0.0281013 -0.0167916 0.0654128 -0.0265418 
-0.0268654 0.0506877 -0.0240837 -0.0344664 0.0343552 -0.0211481 -0.0365844 0.0183653 -0.018499 
-0.0362834 0.0025265 -0.0159762 -0.0318053 -0.010399 -0.0142182 0.0786974 0.0710447 -0.0190861 
0.0728704 0.0795109 -0.0252399 0.0621834 0.0868731 -0.0310811 0.047197 0.0932588 -0.0366459 
0.0287518 0.0946109 -0.0400995 0.00771261 0.0921878 -0.0419696 -0.0116533 0.0830615 -0.0410779 
-0.0299593 0.0696898 -0.0384369 -0.0419978 0.0527636 -0.0346019 -0.0507067 0.033949 -0.0301326 
-0.0523415 0.015646 -0.02623 -0.0508554 -0.00243118 -0.0225773 -0.0441511 -0.0170119 -0.0200284 
0.0876436 0.0667042 -0.027273 0.0819824 0.076173 -0.0357822 0.0697241 0.0848425 -0.0440834 
0.0516298 0.0928048 -0.0522006 0.0284613 0.0951156 -0.0571402 0.00148727 0.0931876 -0.0596966 
-0.0231815 0.0834181 -0.0579508 -0.0463902 0.0686823 -0.0534802 -0.0609846 0.0500698 -0.0474812 
-0.0710025 0.0293977 -0.0406703 -0.0718558 0.00931859 -0.0350443 -0.0686659 -0.0104989 -0.029941 
-0.0588615 -0.0264783 -0.0265029 0.0781048 0.0490043 0.047973 0.0766196 0.043435 0.0464476 
0.0741868 0.0378495 0.0450275 0.0709159 0.0322497 0.0437005 0.0669678 0.0267504 0.042434 
0.062512 0.0213265 0.0412127 0.0577463 0.0161372 0.0399643 0.0527845 0.0110967 0.0386987 
0.0479196 0.00644462 0.0373154 0.0431062 0.00199888 0.0358697 0.0387596 -0.00192091 0.0342472 
0.0346189 -0.00560867 0.0325467 0.0312086 -0.00869949 0.0306597 0.0726587 0.0498332 0.0419778 
0.0710842 0.04499 0.0407149 0.0686312 0.0400297 0.0395001 0.0654009 0.0349658 0.0383279 
0.0615551 0.0298591 0.0371863 0.0572478 0.0247204 0.0360678 0.0526937 0.0196508 0.0349243 
0.0479834 0.014625 0.033765 0.043428 0.00983297 0.0325127 0.0389548 0.0051652 0.0312109 
0.034983 0.000914336 0.0297621 0.0312324 -0.00315261 0.0282485 0.028206 -0.0066656 0.026567 
0.068669 0.0507311 0.0361391 0.066862 0.0466695 0.0349871 0.0641985 0.0423776 0.033868 
0.0607773 0.0378819 0.0327783 0.0567766 0.0331634 0.031727 0.0523413 0.0282777 0.0307047 
0.0477313 0.0232535 0.0296853 0.0430107 0.0181417 0.0286677 0.0385493 0.0130884 0.0275906 
0.0342256 0.00806628 0.026482 0.0305084 0.00336694 0.0252501 0.0270588 -0.00118998 0.0239638 
0.0243986 -0.00519046 0.0225132 0.0647764 0.0516611 0.0303011 0.0627279 0.0483878 0.0292487 
0.0598403 0.0447697 0.0282165 0.0562104 0.0408469 0.0272022 0.0520341 0.0365167 0.0262372 
0.047448 0.031881 0.0253091 0.0427605 0.026894 0.0244146 0.0380088 0.0216844 0.0235414 
0.0336258 0.0163549 0.022644 0.0294387 0.0109618 0.0217338 0.0259705 0.00579848 0.0207241 
0.0228193 0.000736559 0.0196704 0.0205291 -0.00376164 0.0184551 0.0623723 0.0530851 0.0244714 
0.0599465 0.0507013 0.023349 0.0566254 0.0478414 0.0222668 0.0525124 0.0445603 0.0212201 
0.0478434 0.0406222 0.0202783 0.0427572 0.0361914 0.0194151 0.0376614 0.0311132 0.0186595 
0.0325593 0.0256251 0.0179721 0.0280157 0.0197906 0.0173212 0.0237688 0.0137721 0.0166897 
0.0204624 0.00790705 0.0159838 0.017571 0.00210963 0.015245 0.0157079 -0.00304306 0.0143315 
0.0601548 0.0545726 0.0186095 0.0573376 0.0531 0.017391 0.0535553 0.0510179 0.0162361 
0.0489192 0.0483968 0.0151375 0.0437082 0.0448565 0.0142075 0.0380662 0.040627 0.0134038 
0.0325095 0.035437 0.012791 0.0270071 0.0296388 0.0122991 0.022269 0.0232583 0.01191 
0.017937 0.0165683 0.0115755 0.0147877 0.00995844 0.0111913 0.0121602 0.0033839 0.0107852 
0.0107444 -0.00245148 0.0101879 0.0595802 0.0566192 0.0124641 0.0562481 0.0562476 0.0109195 
0.0517595 0.0551176 0.00949304 0.0462478 0.0533165 0.00817103 0.0400626 0.0502244 0.00715203 
0.0333722 0.046164 0.00636028 0.0268945 0.0406803 0.00592467 0.0205515 0.0342951 0.00571462 
0.015321 0.0270072 0.00572146 0.0106816 0.0192398 0.00584354 0.00764707 0.0115067 0.00593943 
0.00532065 0.00378875 0.00602376 0.00452959 -0.0029774 0.00586902 0.0593286 0.0586768 0.00620641 
0.0554695 0.0594478 0.00427471 0.050228 0.0593136 0.00252036 0.0437637 0.0583786 0.0009229 
0.036501 0.0557556 -0.000214864 0.0286396 0.0518664 -0.00100785 0.0211271 0.0460526 -0.00125133 
0.0138356 0.0390198 -0.00114679 0.0080464 0.0307455 -0.00069745 0.00305536 0.0218116 -6.4946e-05 
0.0001402 0.012874 0.000560127 -0.00185912 0.00393474 0.00118192 -0.00196476 -0.00381341 0.00150457 
0.0610157 0.0608005 -0.000724491 0.0565565 0.0629628 -0.00341002 0.0502826 0.0640877 -0.00582995 
0.0424033 0.0642951 -0.00801493 0.0334444 0.0622663 -0.0094505 0.0236759 0.0585605 -0.010324 
0.0144461 0.0521988 -0.0102856 0.0055575 0.0441552 -0.00966954 -0.00118818 0.0344195 -0.00849851 
-0.00679542 0.0237849 -0.00703262 -0.00956393 0.0131552 -0.00558369 -0.01108 0.00252754 -0.00414224 
-0.0101363 -0.00650998 -0.00313355 0.0631988 0.0626232 -0.00787778 0.0581553 0.0661931 -0.0114497 
0.0507912 0.0686149 -0.0146678 0.0413742 0.070021 -0.0175727 0.0305306 0.0686195 -0.0193818 
0.0186173 0.0651125 -0.0203688 0.00745124 0.0581699 -0.0200029 -0.00324152 0.0490513 -0.0187801 
-0.0110598 0.0377751 -0.0167659 -0.017351 0.0253526 -0.0143312 -0.019946 0.0129498 -0.0119489 
-0.0209103 0.00055551 -0.00958966 -0.0187812 -0.00982652 -0.00783114 0.0675857 0.0631072 -0.0160194 
0.0620288 0.0681584 -0.0210671 0.0533181 0.0720445 -0.0256723 0.0418176 0.0748999 -0.0298861 
0.0282517 0.0742727 -0.0324047 0.0131368 0.0710336 -0.0336519 -0.000938657 0.0633624 -0.0327561 
-0.0143559 0.0528841 -0.0305031 -0.0237626 0.0397155 -0.0271058 -0.0310388 0.0251175 -0.0231006 
-0.0333411 0.0105817 -0.019298 -0.033449 -0.00392685 -0.0155849 -0.0295297 -0.0158985 -0.0127929 
0.072497 0.0625169 -0.0243666 0.066515 0.0688599 -0.031103 0.0564344 0.0740662 -0.0373379 
0.042728 0.0782669 -0.0431294 0.0261931 0.0783754 -0.046514 0.00753673 0.0754147 -0.0480933 
-0.00976092 0.0670858 -0.046565 -0.026198 0.0553568 -0.0430685 -0.0373523 0.0404453 -0.0380517 
-0.0457001 0.023843 -0.0322272 -0.0476735 0.00730089 -0.0268357 -0.0468347 -0.00921471 -0.0216351 
-0.0409084 -0.0227385 -0.0177405 0.0792197 0.0582151 -0.0334236 0.073118 0.0651958 -0.0425843 
0.0615866 0.0712245 -0.0512872 0.045252 0.0764109 -0.0595852 0.0248957 0.0771218 -0.064376 
0.00152325 0.0744761 -0.0665365 -0.0200769 0.0657341 -0.064021 -0.0405544 0.0531312 -0.0585442 
-0.0540057 0.0369934 -0.0510912 -0.0637243 0.0189777 -0.0425882 -0.0652441 0.000867143 -0.0350244 
-0.0631467 -0.0172853 -0.0278748 -0.0544642 -0.0322315 -0.0226385 0.0765496 0.0429349 0.0485647 
0.0751504 0.0376022 0.0472028 0.0727983 0.0321963 0.0459196 0.0696032 0.0267257 0.0447061 
0.0656959 0.0213306 0.0435219 0.0612544 0.0159923 0.0423598 0.0564578 0.0108997 0.0411371 
0.0514363 0.00596283 0.039876 0.0464757 0.001449 0.0384648 0.0415474 -0.00284009 0.0369739 
0.0370722 -0.00656526 0.0352787 0.0327968 -0.0100416 0.0334933 0.0292641 -0.0128986 0.0315029 
0.0713776 0.0437824 0.0425768 0.0698326 0.0391058 0.0414192 0.0674143 0.0342805 0.0402937 
0.0642234 0.0293235 0.0391966 0.0603983 0.0243186 0.0381108 0.0560975 0.0192779 0.0370335 
0.0515186 0.0143277 0.0359098 0.0467635 0.00943494 0.0347568 0.0421331 0.00481078 0.0334891 
0.037569 0.000329312 0.0321604 0.0334893 -0.00370501 0.0306651 0.0296234 -0.00754207 0.0290963 
0.0264836 -0.0108136 0.0273445 0.0674961 0.044673 0.0365606 0.0657014 0.0406919 0.0354743 
0.0630653 0.0364692 0.0344143 0.059685 0.0320329 0.0333778 0.0557175 0.027392 0.0323721 
0.0513097 0.0225976 0.0313894 0.0467014 0.0177063 0.0304005 0.041966 0.0127536 0.0294075 
0.0374567 0.00790461 0.0283438 0.0330673 0.00311066 0.0272425 0.0292576 -0.00133166 0.0260045 
0.0257036 -0.00561886 0.0247061 0.0229281 -0.00934741 0.023229 0.0636999 0.0455881 0.0305367 
0.0616482 0.0423071 0.0295111 0.0587829 0.0386906 0.0285085 0.0551977 0.0347775 0.0275263 
0.0510698 0.0304994 0.0265973 0.046535 0.0259475 0.0257082 0.0418779 0.0211071 0.0248558 
0.0371436 0.0160839 0.0240267 0.0327408 0.010997 0.0231725 0.0285142 0.00587629 0.0223051 
0.0249687 0.00101286 0.0213307 0.0217237 -0.00373707 0.0203093 0.0193155 -0.00793083 0.0191122 
0.0612125 0.0468771 0.0243936 0.0587934 0.0443686 0.0232685 0.0555217 0.0414123 0.0221965 
0.0514956 0.0380598 0.0211714 0.0469304 0.0341281 0.0202684 0.0419608 0.0297619 0.0194568 
0.0369593 0.0248499 0.0187701 0.0319377 0.0195923 0.0181623 0.0274208 0.0140675 0.0176019 
0.023172 0.00840093 0.0170668 0.0198032 0.00291533 0.0164554 0.0168226 -0.00249042 0.0158103 
0.0148262 -0.00727442 0.0149737 0.0588852 0.0482079 0.018209 0.0560863 0.0464865 0.0169592 
0.0523842 0.0442031 0.0157963 0.0478831 0.0414226 0.0147103 0.0428386 0.0378391 0.0138232 
0.0373865 0.0336533 0.0130854 0.0319956 0.0286517 0.0125699 0.0266433 0.0231335 0.0121953 
0.0219823 0.0171372 0.0119464 0.0176886 0.0108871 0.0117642 0.0144913 0.00474394 0.0115363 
0.0117778 -0.00135199 0.0112884 0.0102108 -0.00674914 0.0108289 0.057966 0.0499058 0.0116603 
0.0546789 0.0490997 0.0100635 0.0503357 0.0476021 0.00862034 0.0450583 0.045493 0.00731311 
0.0391656 0.0422739 0.00635442 0.0328114 0.0382225 0.00565714 0.0266349 0.0329726 0.00536365 
0.0205709 0.0269636 0.00532588 0.0155019 0.0201995 0.00554298 0.0109615 0.0130344 0.00589549 
0.00789091 0.00592251 0.00623307 0.00546869 -0.00116583 0.00656407 0.00448504 -0.00737779 0.0066282 
0.0573108 0.0515818 0.00499656 0.0535229 0.051715 0.00299499 0.0484989 0.0510288 0.00121937 
0.0423815 0.0496178 -0.000356385 0.0355566 0.0467735 -0.00141253 0.0282011 0.0428541 -0.00207897 
0.0211458 0.0373275 -0.00213292 0.0142808 0.0307829 -0.00179897 0.008747 0.0231915 -0.00106637 
0.00392047 0.015044 -0.000122003 0.000977945 0.00689933 0.000834989 -0.00113339 -0.00124413 0.00179755 
-0.00148146 -0.00831278 0.00242507 0.0582392 0.0531264 -0.00235772 0.0538747 0.0543436 -0.00511022 
0.0479318 0.054622 -0.0075316 0.0405927 0.0540701 -0.00966007 0.0323317 0.0516613 -0.0109687 
0.0233793 0.0478598 -0.0116624 0.0148865 0.0418866 -0.0113713 0.00668479 0.0345378 -0.0104563 
0.000345214 0.0257619 -0.00891167 -0.00500512 0.0162279 -0.00703245 -0.00781052 0.00666562 -0.00513209 
-0.00949315 -0.00290917 -0.0032224 -0.00889243 -0.0110858 -0.0017925 0.059544 0.0543707 -0.0099129 
0.0546079 0.0566665 -0.013534 0.0476977 0.057919 -0.016716 0.0390411 0.0582487 -0.0195097 
0.0292014 0.0562889 -0.0211327 0.0184743 0.0526121 -0.0218777 0.0083761 0.0461738 -0.0211959 
-0.00132381 0.0379865 -0.0196104 -0.00856722 0.0279787 -0.0171357 -0.0145056 0.0170037 -0.0141886 
-0.0171607 0.00596369 -0.0112289 -0.0183673 -0.00510495 -0.00826356 -0.0167038 -0.0144376 -0.00595537 
0.0625219 0.0542799 -0.018361 0.057036 0.0576311 -0.0233736 0.0489433 0.0598999 -0.027827 
0.0385445 0.0612112 -0.0317858 0.0264921 0.0597603 -0.0339982 0.0131996 0.0562379 -0.0349008 
0.000749781 0.0492528 -0.0336259 -0.0111663 0.0400745 -0.0309721 -0.0197492 0.0286236 -0.0270432 
-0.0265613 0.0159652 -0.0224368 -0.0290075 0.00318069 -0.0179021 -0.0295275 -0.00965955 -0.013399 
-0.0262945 -0.0203619 -0.00987511 0.0658516 0.0532827 -0.0269458 0.0598671 0.0575318 -0.0335203 
0.0505706 0.0606931 -0.039433 0.0383441 0.0628921 -0.0447602 0.0239137 0.0619157 -0.0476769 
0.00783038 0.0585576 -0.0487855 -0.00719018 0.0510956 -0.0468306 -0.0215376 0.0410344 -0.0429354 
-0.0315977 0.0282758 -0.0373465 -0.0393802 0.0140844 -0.0308576 -0.0416158 -0.000343122 -0.0245702 
-0.0414041 -0.0148748 -0.0183716 -0.036424 -0.0269283 -0.0135275 0.070397 0.0491546 -0.0360028 
0.0640905 0.0537573 -0.0447277 0.0535164 0.0573834 -0.0527487 0.0391671 0.0601457 -0.060147 
0.0217872 0.0595244 -0.0641647 0.00213446 0.0563653 -0.0656468 -0.0162136 0.0486682 -0.0627109 
-0.0337354 0.0380968 -0.0569771 -0.0457487 0.024499 -0.0490173 -0.0548357 0.00929326 -0.0398751 
-0.0568547 -0.00642616 -0.0312207 -0.0557556 -0.0223722 -0.0227816 -0.0484146 -0.0357133 -0.0162565 
0.0752662 0.0369996 0.0490259 0.0739204 0.0318316 0.0479001 0.0716121 0.0265458 0.046816 
0.0684523 0.0211556 0.0457687 0.0645438 0.0158294 0.0447047 0.0600738 0.0105511 0.0436282 
0.0552051 0.00554299 0.042442 0.0500841 0.000705978 0.0411863 0.0449929 -0.0036613 0.0397354 
0.0399175 -0.00777903 0.0381809 0.0352893 -0.0112861 0.0363882 0.0308582 -0.0145237 0.0344903 
0.0271909 -0.0171153 0.0323691 0.0702947 0.0377428 0.0431072 0.0687575 0.0331766 0.0421246 
0.0663484 0.0284409 0.0411479 0.063168 0.0235554 0.0401765 0.059333 0.0186291 0.0391823 
0.0550072 0.0136724 0.038171 0.0503727 0.00883995 0.0370765 0.0455429 0.00408634 0.0359291 
0.0408112 -0.000353082 0.0346326 0.0361316 -0.0046256 0.033257 0.0319251 -0.00841333 0.0316882 
0.0279272 -0.0119872 0.0300342 0.024664 -0.0149812 0.028182 0.066475 0.0385493 0.0369918 
0.0646793 0.0346048 0.0360409 0.0620543 0.0304178 0.0350993 0.0586957 0.0260163 0.034166 
0.0547409 0.0214396 0.0332401 0.0503389 0.0167317 0.0323198 0.0457108 0.0119799 0.0313672 
0.0409396 0.00720028 0.030394 0.036363 0.00257937 0.0293251 0.0318898 -0.00195721 0.0282053 
0.0279724 -0.00610669 0.0269281 0.0243003 -0.0100854 0.0255814 0.0213998 -0.0135018 0.0240421 
0.0627303 0.0393754 0.0308629 0.0606705 0.0360554 0.0299344 0.0578202 0.0324187 0.0290207 
0.0542704 0.0285017 0.0281201 0.0501802 0.0242724 0.0272602 0.0456846 0.0198089 0.0264307 
0.0410458 0.01513 0.0256227 0.0363162 0.0103146 0.0248282 0.0318814 0.00550096 0.0239929 
0.0276033 0.000688192 0.0231361 0.0239693 -0.00383383 0.0221575 0.0206196 -0.00822759 0.0211253 
0.0180838 -0.0120725 0.0199045 0.0601355 0.0404999 0.024526 0.0577261 0.0378491 0.0234769 
0.0545046 0.034788 0.0224809 0.0505648 0.0313637 0.021532 0.0461009 0.0274463 0.0207018 
0.0412441 0.023159 0.0199606 0.0363324 0.0184354 0.0193384 0.0313859 0.0134354 0.0187914 
0.0268896 0.00825597 0.0182845 0.0226323 0.00298117 0.0177988 0.0191926 -0.00207881 0.0172271 
0.0161137 -0.00704401 0.0166173 0.013973 -0.011411 0.0158023 0.0576771 0.0416504 0.0181459 
0.0549076 0.0396776 0.0169533 0.0512948 0.0371991 0.015856 0.0469362 0.0342734 0.014843 
0.0420636 0.0306666 0.0140346 0.0368055 0.0265491 0.0133796 0.0315827 0.0217651 0.0129502 
0.0263823 0.0165591 0.0126635 0.0217981 0.0109868 0.0125033 0.0175412 0.00521999 0.0124103 
0.0142904 -0.000406066 0.0122668 0.0114835 -0.00597001 0.0121011 0.00975256 -0.0108768 0.0117093 
0.0564184 0.0430293 0.0113855 0.0531967 0.0418116 0.00984855 0.0490156 0.0399788 0.00848193 
0.0439858 0.0376019 0.00726598 0.038395 0.0342952 0.00640967 0.0323834 0.0302913 0.00582311 
0.0265136 0.0253094 0.00564809 0.0207336 0.0197082 0.00573371 0.0158304 0.0135051 0.00608196 
0.011393 0.00698223 0.00656974 0.00828371 0.00054257 0.00704384 0.00576033 -0.00586038 0.00751191 
0.00456781 -0.0114622 0.00769602 0.055373 0.0443658 0.00452199 0.0516871 0.0439146 0.00259005 
0.0469047 0.0427397 0.000909129 0.0411522 0.0409247 -0.000549756 0.0347761 0.0379208 -0.00147448 
0.0279322 0.0340254 -0.00199858 0.0213405 0.0288239 -0.00190045 0.0149083 0.0227952 -0.00140824 
0.00963845 0.0159178 -0.000503081 0.00498598 0.00858963 0.000621467 0.00201748 0.00128789 0.00176731 
-0.000208087 -0.00600218 0.00292254 -0.000818417 -0.0123311 0.00372366 0.0556079 0.0454476 -0.00296015 
0.0513852 0.0458312 -0.00559101 0.0458034 0.0453879 -0.00785622 0.0390193 0.0442131 -0.009798 
0.0314552 0.0415285 -0.0109142 0.0233061 0.0377113 -0.0114112 0.015543 0.0321595 -0.0109277 
0.00802432 0.0255091 -0.00982313 0.00210127 0.0176971 -0.00807044 -0.00297413 0.00926794 -0.00597345 
-0.00580587 0.000813273 -0.00383075 -0.00764775 -0.00765266 -0.0016679 -0.0074135 -0.0149006 -3.36098e-06 
0.0561245 0.0462467 -0.0106009 0.0513633 0.0474475 -0.0140278 0.0449428 0.0477288 -0.0169699 
0.0370543 0.0471967 -0.0194833 0.0281965 0.0448332 -0.0208375 0.0186118 0.0410961 -0.0213222 
0.00955111 0.0351858 -0.0204104 0.000822446 0.027899 -0.0186139 -0.005834 0.0191274 -0.0159063 
-0.0113896 0.00956698 -0.0127146 -0.0140799 -8.12814e-05 -0.00946218 -0.015506 -0.0097683 -0.00618295 
-0.014334 -0.0179716 -0.00357538 0.0578931 0.0457891 -0.0189467 0.0525863 0.0477294 -0.023601 
0.0451521 0.0487043 -0.0276318 0.035836 0.0488251 -0.0311111 0.0252146 0.0467918 -0.0329098 
0.0136143 0.0431428 -0.0334481 0.00269534 0.0368371 -0.0319171 -0.00779216 0.0288488 -0.0290754 
-0.0155386 0.0190069 -0.0249355 -0.0218288 0.00818036 -0.0201058 -0.0243567 -0.00284225 -0.0152419 
-0.0252247 -0.0139514 -0.0103629 -0.0227007 -0.0232715 -0.00645847 0.0598918 0.0445864 -0.0273504 
0.0540673 0.0471405 -0.0333585 0.0456021 0.0487089 -0.038613 0.0348009 0.0494054 -0.043201 
0.0223087 0.0476756 -0.0455215 0.00854838 0.0441262 -0.0461415 -0.00437878 0.0374904 -0.0439197 
-0.0167782 0.0288998 -0.039898 -0.0257276 0.0181068 -0.0341543 -0.0328443 0.00614363 -0.027496 
-0.0352246 -0.00616688 -0.0208485 -0.0355153 -0.0186306 -0.0142059 -0.0314979 -0.0290503 -0.00888283 
0.0626855 0.04081 -0.0359544 0.0564393 0.0435435 -0.0437528 0.0468832 0.0453598 -0.0506977 
0.0343989 0.0463647 -0.0568876 0.0196657 0.0448467 -0.0599967 0.00324563 0.0414366 -0.0607954 
-0.0122072 0.0346959 -0.0576352 -0.0270474 0.025846 -0.0519678 -0.0375904 0.0145131 -0.0440287 
-0.0458506 0.00186104 -0.0348827 -0.0481346 -0.0114387 -0.025857 -0.047782 -0.0250241 -0.0168845 
-0.0417821 -0.0364838 -0.00972249 0.074204 0.0311737 0.0493807 0.0728854 0.0261118 0.0485503 
0.070591 0.0208974 0.0477158 0.0674333 0.0155481 0.0468778 0.0634894 0.0102618 0.0459648 
0.0589558 0.0050228 0.0449956 0.0539817 8.91644e-05 0.0438546 0.0487286 -0.00465106 0.0426048 
0.0434784 -0.00886503 0.0411047 0.0382298 -0.0127994 0.0394716 0.0334286 -0.0160692 0.0375612 
0.0288246 -0.0190458 0.0355285 0.0250127 -0.0213462 0.033254 0.0693733 0.0317122 0.0435816 
0.0678263 0.0272106 0.0428309 0.0654056 0.0225279 0.0420515 0.062212 0.017685 0.0412469 
0.0583424 0.0128184 0.0403735 0.0539656 0.00793404 0.0394487 0.0492508 0.00321799 0.0383907 
0.0443219 -0.00139147 0.0372484 0.0394673 -0.00563237 0.0359123 0.0346523 -0.00967748 0.0344733 
0.0303033 -0.0131941 0.0328091 0.0261599 -0.0164776 0.0310455 0.022765 -0.0191648 0.0290684 
0.0655776 0.0323721 0.0374309 0.0637702 0.0284286 0.0366723 0.061143 0.0242498 0.0358973 
0.0577905 0.019863 0.0351078 0.0538315 0.0153399 0.0342898 0.0494177 0.0107146 0.0334504 
0.0447524 0.00610764 0.0325388 0.039928 0.00151226 0.0315814 0.0352684 -0.0028611 0.0304921 
0.0306965 -0.00711654 0.0293327 0.0266592 -0.010944 0.0279894 0.0228578 -0.0145826 0.026565 
0.0198243 -0.017654 0.0249344 0.0618477 0.0330489 0.0312628 0.0597759 0.0296646 0.0304886 
0.0569346 0.0259896 0.0297122 0.0534126 0.0220577 0.0289339 0.0493513 0.0178746 0.02817 
0.0448854 0.0135032 0.0274168 0.0402547 0.00899789 0.0266549 0.0355197 0.00440779 0.0258874 
0.031043 -0.000107675 0.0250513 0.0267034 -0.00458349 0.0241787 0.0229719 -0.00873026 0.0231636 
0.0195085 -0.0127319 0.0220856 0.0168375 -0.0161916 0.0208071 0.059126 0.0339848 0.0248298 
0.0567287 0.0311774 0.0239206 0.0535583 0.0280045 0.0230543 0.0497039 0.0245082 0.022226 
0.0453395 0.0206116 0.0214965 0.0405925 0.0164148 0.0208409 0.0357667 0.0118976 0.0202797 
0.0308911 0.00717748 0.0197782 0.0264102 0.00237227 0.0192945 0.022139 -0.00247815 0.0188202 
0.0186217 -0.0070749 0.0182434 0.0154369 -0.0115597 0.0176213 0.0131429 -0.0154703 0.0167828 
0.0565194 0.0349358 0.0183577 0.0537881 0.0327094 0.0172943 0.0502721 0.030041 0.0163226 
0.0460621 0.0269815 0.015432 0.0413658 0.0233678 0.0147313 0.0363048 0.0193385 0.0141731 
0.0312522 0.014796 0.0138204 0.026205 0.00992849 0.0135978 0.0216973 0.00481248 0.0134844 
0.0174762 -0.000435548 0.0134291 0.0141674 -0.0055035 0.0133114 0.0112611 -0.010492 0.0131661 
0.00935574 -0.0148658 0.0127845 0.0549251 0.03602 0.0115416 0.0517854 0.0344095 0.010156 
0.0477799 0.0322676 0.00894185 0.0430087 0.0296558 0.00787948 0.0377274 0.0262935 0.00715984 
0.0320637 0.0223684 0.00669724 0.0265051 0.0176826 0.00662143 0.021013 0.012515 0.00679058 
0.0162791 0.00690305 0.00720553 0.0119479 0.00105503 0.00775107 0.00879789 -0.00467093 0.00827598 
0.00616897 -0.010343 0.0087918 0.00475431 -0.0152892 0.00901531 0.0535006 0.0370514 0.00464653 
0.0499417 0.0360591 0.00289791 0.0454203 0.034447 0.00140618 0.0400474 0.0322866 0.000141694 
0.0341291 0.0291737 -0.000611023 0.0278017 0.0253464 -0.000979915 0.0216785 0.0205009 -0.000760219 
0.0156845 0.0150105 -0.000167751 0.0106854 0.0088725 0.000819792 0.00621479 0.00239039 0.00201722 
0.00322144 -0.00402761 0.00323532 0.000879827 -0.0104173 0.00446255 -8.9246e-06 -0.0159575 0.00533033 
0.0530951 0.037765 -0.00272268 0.0490524 0.0374058 -0.0050782 0.043856 0.0363425 -0.00705883 
0.0376391 0.0346562 -0.00870782 0.0307712 0.0317805 -0.00957825 0.023415 0.0280127 -0.00986475 
0.0163755 0.0229093 -0.00923801 0.00953678 0.0169601 -0.00803287 0.00403875 0.0101152 -0.00620714 
-0.000747026 0.0027944 -0.0040517 -0.00359651 -0.00451988 -0.00183705 -0.00559174 -0.0118313 0.000403731 
-0.00574305 -0.0180953 0.00215088 0.0528967 0.0382273 -0.0101913 0.0483656 0.0384792 -0.0132256 
0.0424638 0.0379507 -0.0157617 0.0353496 0.0367318 -0.0178571 0.0274559 0.0340905 -0.018875 
0.0189777 0.0303823 -0.0190847 0.01093 0.0250191 -0.0180127 0.00315492 0.0186077 -0.0161289 
-0.00290469 0.0110462 -0.0133738 -0.00805299 0.00287368 -0.0101558 -0.0107582 -0.00535941 -0.00684268 
-0.0123855 -0.0136192 -0.00348755 -0.011726 -0.020628 -0.000784541 0.0536188 0.0375725 -0.0181016 
0.0485792 0.0383375 -0.0221342 0.0418366 0.0382819 -0.0255217 0.0335874 0.0375005 -0.0283386 
0.0243298 0.0350811 -0.0296362 0.0143158 0.0314332 -0.0297943 0.0048504 0.0258016 -0.028107 
-0.00426754 0.0189136 -0.0252511 -0.0111672 0.0105924 -0.0211614 -0.0168885 0.00150968 -0.0164164 
-0.0194474 -0.00774235 -0.0115517 -0.0206111 -0.0170691 -0.00663419 -0.0188146 -0.024915 -0.00263539 
0.0544906 0.0363284 -0.0259832 0.0489584 0.0375126 -0.0310952 0.0413631 0.0378565 -0.0354179 
0.0319427 0.0374571 -0.0390424 0.0212533 0.0352442 -0.0406625 0.00961215 0.0316711 -0.0407793 
-0.00137129 0.0258284 -0.0384205 -0.0119382 0.0185481 -0.034494 -0.0197635 0.00956773 -0.0289359 
-0.0261324 -0.000315889 -0.0225111 -0.0285618 -0.0105075 -0.0159403 -0.0292532 -0.0208349 -0.00930505 
-0.0262118 -0.0294873 -0.00388632 0.0558796 0.0330488 -0.033765 0.0499097 0.0343276 -0.0402372 
0.0414208 0.034817 -0.0457848 0.0307037 0.0346079 -0.0505145 0.0183483 0.0325482 -0.052605 
0.00476416 0.0291005 -0.0527159 -0.00808405 0.0232446 -0.0494912 -0.0204662 0.0158634 -0.044154 
-0.0295126 0.00657131 -0.0366651 -0.036787 -0.00373602 -0.028033 -0.039145 -0.0145928 -0.0192221 
-0.039334 -0.0256919 -0.0103323 -0.0346746 -0.035045 -0.00306476 0.0735576 0.0255506 0.0499117 
0.0722177 0.0205215 0.0494332 0.0698784 0.0153181 0.0488937 0.0666553 0.0099605 0.0483003 
0.0626046 0.00467908 0.0475559 0.0579332 -0.000545184 0.0466983 0.0527837 -0.00541505 0.0455877 
0.0473314 -0.0100605 0.0443169 0.0418671 -0.0141116 0.0427262 0.0363964 -0.0178471 0.0409656 
0.0313895 -0.0208566 0.0388832 0.0265872 -0.0235458 0.0366589 0.0226214 -0.025526 0.0341785 
0.0687906 0.0257685 0.0442077 0.0671962 0.0212724 0.0437454 0.0647171 0.0165949 0.043209 
0.0614554 0.0117567 0.0426071 0.0574922 0.0069247 0.041874 0.0530029 0.00209739 0.0410426 
0.0481491 -0.00250535 0.0400102 0.0430647 -0.00696584 0.0388505 0.0380406 -0.010993 0.0374383 
0.0330487 -0.0147899 0.0358918 0.0285294 -0.018008 0.034082 0.0242186 -0.0209706 0.032156 
0.020684 -0.0233179 0.0300036 0.0649709 0.0262346 0.038031 0.0631224 0.022249 0.0375203 
0.0604551 0.018045 0.0369564 0.0570634 0.0136479 0.0363457 0.0530508 0.00916341 0.0356541 
0.0485727 0.00461336 0.0349019 0.0438202 0.000153351 0.0340198 0.0388939 -0.00424961 0.0330553 
0.0341113 -0.008359 0.0319085 0.0294049 -0.0123124 0.0306649 0.0252237 -0.015791 0.0292046 
0.0212742 -0.01906 0.0276487 0.0181011 -0.0217544 0.0258753 0.0612097 0.0267191 0.0318359 
0.0591047 0.0232437 0.0312707 0.0562435 0.0195118 0.0306752 0.0527131 0.015553 0.0300529 
0.0486403 0.0114115 0.0294026 0.0441605 0.00713287 0.0287312 0.039496 0.00280831 0.028003 
0.0347145 -0.00154534 0.0272388 0.0301619 -0.00574531 0.0263638 0.0257309 -0.00986365 0.0254299 
0.0218816 -0.0136094 0.0243259 0.0182889 -0.0171907 0.0231469 0.0154772 -0.0202346 0.021758 
0.0583466 0.0274862 0.0253592 0.0559467 0.0245173 0.0246464 0.0528038 0.0212334 0.0239541 
0.0490037 0.017671 0.02328 0.0447021 0.0138033 0.0226666 0.0400244 0.0097067 0.0220989 
0.0352454 0.00540589 0.0215813 0.0304024 0.000975772 0.0210954 0.0259061 -0.00344278 0.0205892 
0.0215938 -0.00785519 0.0200721 0.0179814 -0.0119704 0.0194289 0.0146776 -0.0159545 0.01873 
0.0122265 -0.0193848 0.0178075 0.0555822 0.0282649 0.0188521 0.0528807 0.025803 0.0179766 
0.0494432 0.0229665 0.0171756 0.0453544 0.0197985 0.0164406 0.0408006 0.0161995 0.0158612 
0.0358981 0.0122772 0.0153985 0.0309782 0.00798855 0.0150995 0.0260475 0.0034678 0.0149042 
0.0215877 -0.00118561 0.0147833 0.017378 -0.00590949 0.0147018 0.0139964 -0.0104098 0.0145383 
0.0109802 -0.0148114 0.0143386 0.00889821 -0.0186359 0.0138977 0.0536855 0.0291463 0.0120768 
0.0506251 0.0271964 0.0109063 0.0467779 0.0248005 0.0098925 0.0422346 0.0220099 0.00901722 
0.0372222 0.0186339 0.00844437 0.0318579 0.0148186 0.00809835 0.0265645 0.0104398 0.00808839 
0.021316 0.00570393 0.00829127 0.0167193 0.000672434 0.00870144 0.0124689 -0.00451613 0.00922174 
0.00926563 -0.00953826 0.00970508 0.00652429 -0.014487 0.0101721 0.00488821 -0.0187759 0.0103467 
0.0519265 0.0299748 0.00525077 0.0484981 0.028534 0.00375439 0.0442202 0.0265763 0.00250164 