# vtk DataFile Version 2.0
vtk output
ASCII
DATASET RECTILINEAR_GRID
DIMENSIONS 13 13 13
X_COORDINATES 13 float
0 0.208333 0.416667 0.625 0.833333 1.04167 1.25 1.45833 1.66667 
1.875 2.08333 2.29167 2.5 
Y_COORDINATES 13 float
-2.5 -2.29167 -2.08333 -1.875 -1.66667 -1.45833 -1.25 -1.04167 -0.833333 
-0.625 -0.416667 -0.208333 0 
Z_COORDINATES 13 float
2.5 2.70833 2.91667 3.125 3.33333 3.54167 3.75 3.95833 4.16667 
4.375 4.58333 4.79167 5 
POINT_DATA 2197
VECTORS grad float
0.0493702 0.00386851 0.0466852 0.049839 0.00377527 0.0449295 0.0496564 0.00375991 0.0426972 
0.0494214 0.00375725 0.0404432 0.0483835 0.00394939 0.0378569 0.0472547 0.00417192 0.0352422 
0.0453263 0.00466193 0.032378 0.043281 0.00519889 0.0294714 0.0405344 0.00601756 0.0263104 
0.0376595 0.00688968 0.0230723 0.0342137 0.00799942 0.0194915 0.030637 0.00915158 0.0157673 
0.0266082 0.0104503 0.0115478 0.0492736 0.0055349 0.0454094 0.0497504 0.00533976 0.0436405 
0.0496408 0.00521804 0.0413804 0.0494823 0.00510865 0.0390978 0.0485733 0.00518845 0.0364692 
0.0475767 0.00529866 0.0338113 0.0458093 0.00567643 0.0308963 0.043925 0.00610321 0.0279392 
0.0413398 0.00682403 0.0247297 0.0386201 0.0076051 0.0214456 0.0353029 0.00865393 0.0178302 
0.0318409 0.00976034 0.0140766 0.0278785 0.0110657 0.00984586 0.0490343 0.00729741 0.0433795 
0.0495183 0.0070171 0.0416296 0.0494769 0.00680636 0.0393879 0.0493902 0.0066076 0.0371232 
0.0486074 0.00659244 0.0345063 0.0477411 0.00660765 0.0318595 0.0461399 0.00689015 0.0289493 
0.0444241 0.00722359 0.0259968 0.0420202 0.00786266 0.0227913 0.0394797 0.00856854 0.019513 
0.0363323 0.00957131 0.0159114 0.0330322 0.0106465 0.0121767 0.0292048 0.0119717 0.00798252 
0.0487537 0.00908774 0.0411312 0.0492446 0.00872711 0.0394098 0.0492701 0.00843238 0.0371997 
0.0492539 0.00814926 0.0349665 0.0485964 0.00804416 0.032377 0.0478597 0.00796939 0.0297569 
0.0464264 0.00816154 0.0268675 0.0448813 0.00840652 0.0239357 0.0426645 0.0089685 0.0207493 
0.0403101 0.00960377 0.0174917 0.0373444 0.0105648 0.013918 0.03422 0.0116129 0.0102163 
0.0305474 0.0129618 0.00607248 0.0483594 0.0106974 0.0382481 0.0488591 0.0102752 0.0365713 
0.0489487 0.0099186 0.0344213 0.0490001 0.00957341 0.0322483 0.0484656 0.00940257 0.0297234 
0.0478571 0.00926204 0.0271677 0.0465966 0.00938814 0.0243413 0.0452289 0.00956864 0.0214725 
0.0432177 0.0100756 0.018349 0.0410718 0.0106614 0.015156 0.0383268 0.0115978 0.0116541 
0.035423 0.0126342 0.00802972 0.0319707 0.014016 0.00398213 0.0479397 0.0122663 0.035222 
0.0484486 0.0117868 0.0335937 0.0486015 0.0113734 0.03151 0.0487198 0.0109711 0.0294038 
0.048308 0.01074 0.0269518 0.0478273 0.0105391 0.024469 0.0467406 0.0106047 0.0217152 
0.0455518 0.0107261 0.0189189 0.0437506 0.011183 0.0158682 0.0418181 0.0117241 0.0127495 
0.0393025 0.0126397 0.00932938 0.0366294 0.0136678 0.00579227 0.0334123 0.0150845 0.0018512 
0.047439 0.0134662 0.0317426 0.0479635 0.0129481 0.0301648 0.0481803 0.0125007 0.0281587 
0.048366 0.0120643 0.026131 0.0480759 0.0117982 0.0237716 0.0477226 0.0115624 0.0213822 
0.0468134 0.0115926 0.0187274 0.0458088 0.0116797 0.0160308 0.0442321 0.0121081 0.013084 
0.0425309 0.0126249 0.0100715 0.0402766 0.0135336 0.0067673 0.0378714 0.0145646 0.00335241 
0.0349448 0.0160174 -0.000444945 0.0469248 0.0146045 0.0281877 0.0474661 0.0140511 0.0266607 
0.0477468 0.0135734 0.0247341 0.048 0.0131067 0.0227868 0.0478314 0.01281 0.0205234 
0.0476055 0.0125434 0.0182307 0.0468744 0.0125424 0.0156793 0.0460549 0.0125993 0.013087 
0.0447051 0.013003 0.0102492 0.0432381 0.0134986 0.00734812 0.0412505 0.0144029 0.00416566 
0.0391194 0.0154385 0.000878823 0.0364925 0.0169278 -0.00276863 0.0463625 0.0152732 0.0243765 
0.0469311 0.0147022 0.0228922 0.0472795 0.0142148 0.021043 0.0476036 0.0137384 0.0191748 
0.0475568 0.0134329 0.0170127 0.0474585 0.0131574 0.0148227 0.046907 0.013146 0.012387 
0.046275 0.0131927 0.00991213 0.0451607 0.0135877 0.00720176 0.043939 0.0140767 0.0044312 
0.0422395 0.014983 0.00139315 0.0404081 0.0160264 -0.0017423 0.0381209 0.0175434 -0.0052142 
0.0457947 0.0158885 0.0205362 0.0463919 0.0153021 0.0190935 0.0468083 0.0148071 0.0173218 
0.0472039 0.0143234 0.0155323 0.0472788 0.0140116 0.0134721 0.0473081 0.0137296 0.0113856 
0.0469363 0.0137103 0.00906703 0.0464922 0.0137492 0.00671103 0.0456144 0.0141373 0.00413014 
0.0446391 0.0146211 0.00149229 0.0432303 0.0155303 -0.00139879 0.0417015 0.0165819 -0.0043802 
0.0397585 0.0181255 -0.00767363 0.045211 0.0160041 0.0166203 0.0458495 0.0154188 0.0152053 
0.046339 0.0149333 0.013501 0.0468105 0.0144589 0.0117808 0.0470065 0.0141567 0.00981807 
0.0471626 0.0138838 0.00783114 0.0469684 0.0138696 0.00563167 0.0467106 0.0139129 0.00339732 
0.0460705 0.0143014 0.000953633 0.0453442 0.0147854 -0.00154306 0.044235 0.0156942 -0.0042753 
0.0430206 0.0167471 -0.00709035 0.0414432 0.0182977 -0.0101914 0.0446262 0.0160872 0.0126995 
0.0453069 0.0155041 0.0113113 0.0458697 0.015029 0.00967377 0.0464175 0.0145651 0.00802224 
0.0467345 0.0142734 0.0061566 0.0470174 0.0140107 0.00426906 0.0470008 0.0140025 0.00218879 
0.046929 0.014051 7.62723e-05 0.0465267 0.0144403 -0.00222972 0.0460497 0.0149249 -0.00458469 
0.0452406 0.0158332 -0.00715732 0.0443415 0.0168869 -0.00980521 0.043131 0.0184432 -0.0127131 
0.0440568 0.0156883 0.00885443 0.0447918 0.0151235 0.0074776 0.0454312 0.0146716 0.00589381 
0.046058 0.0142306 0.00429815 0.0464923 0.0139586 0.0025205 0.046898 0.0137145 0.000723683 
0.0470514 0.0137161 -0.00124185 0.0471583 0.0137729 -0.00323633 0.0469861 0.01416 -0.00540448 
0.0467513 0.0146402 -0.00761704 0.0462378 0.0155344 -0.010027 0.0456506 0.0165719 -0.0125046 
0.0448081 0.0181043 -0.015216 0.0477738 0.00268542 0.0446884 0.0479924 0.00255178 0.0432714 
0.0476092 0.00248073 0.041518 0.047176 0.00242174 0.0397467 0.0459751 0.00254765 0.0377013 
0.0446837 0.00270385 0.0356266 0.0425958 0.00312658 0.0332947 0.040385 0.00359779 0.0309124 
0.0374371 0.00435994 0.0282283 0.0343443 0.00517945 0.0254523 0.0306081 0.00625396 0.0222684 
0.026711 0.00737716 0.0189202 0.0222583 0.00866856 0.0150044 0.0476487 0.00388195 0.0432743 
0.0478685 0.00367323 0.0418021 0.0475521 0.00353037 0.0399806 0.0471893 0.00339941 0.0381408 
0.0461139 0.00345083 0.0360221 0.0449518 0.00353243 0.0338748 0.0430261 0.00387954 0.0314755 
0.0409784 0.0042766 0.0290286 0.0381985 0.00497336 0.0262955 0.0352687 0.0057335 0.0234758 
0.0316727 0.0067753 0.0202716 0.0279025 0.00788071 0.0169109 0.023531 0.00920584 0.0130098 
0.0474123 0.0052166 0.0412541 0.0476396 0.00494131 0.0397616 0.04739 0.00473545 0.0379159 
0.0470974 0.00454138 0.0360519 0.0461465 0.00452805 0.0339073 0.0451132 0.00454494 0.0317345 
0.0433543 0.00482779 0.0293133 0.0414762 0.00516229 0.0268462 0.0388826 0.00580669 0.0241037 
0.0361379 0.00652066 0.0212789 0.0327221 0.00754378 0.0180884 0.0291258 0.00864535 0.0147491 
0.024906 0.0100179 0.0108961 0.0471438 0.00659123 0.0390585 0.0473803 0.00625184 0.0375557 
0.0471974 0.00598552 0.0356986 0.0469751 0.00573089 0.0338231 0.0461484 0.00565564 0.0316663 
0.0452436 0.0056107 0.0294817 0.043653 0.00583258 0.0270517 0.0419464 0.00610787 0.0245773 
0.0395442 0.00670369 0.0218369 0.036991 0.0073753 0.0190181 0.0337671 0.0083838 0.0158512 
0.0303583 0.00948556 0.0125432 0.0263107 0.0109095 0.00874792 0.0467784 0.00786533 0.0363267 
0.0470322 0.00747284 0.0348335 0.046918 0.00715934 0.0329938 0.0467678 0.00685759 0.031136 
0.0460658 0.00673591 0.0290014 0.045291 0.00664478 0.0268394 0.0438746 0.00682253 0.0244364 
0.0423474 0.00705541 0.0219904 0.0401553 0.00761905 0.0192867 0.0378162 0.00826414 0.0165083 
0.0348236 0.00927121 0.0133978 0.0316481 0.0103847 0.0101541 0.0278405 0.0118659 0.0064504 
0.0463913 0.00911682 0.0334741 0.0466641 0.0086737 0.0319951 0.046619 0.00831601 0.0301793 
0.0465412 0.00797015 0.0283458 0.0459643 0.00780553 0.0262411 0.0453196 0.00767172 0.0241095 
0.0440788 0.00780914 0.0217415 0.0427327 0.00800338 0.0193319 0.0407551 0.00853856 0.0166727 
0.0386351 0.00916069 0.0139423 0.0358828 0.0101693 0.0108957 0.0329508 0.0112971 0.00772384 
0.0293985 0.0128369 0.00411928 0.045927 0.0100964 0.0302145 0.04623 0.00961536 0.0287562 
0.0462586 0.00922878 0.0269787 0.046258 0.00885423 0.0251843 0.0458086 0.00866409 0.02313 
0.045297 0.00850508 0.0210499 0.0442378 0.00861994 0.0187414 0.0430804 0.00879295 0.016393 
0.0413333 0.0093149 0.0138047 0.0394519 0.00992805 0.0111489 0.0369728 0.0109466 0.00819334 
0.034323 0.0120943 0.00512067 0.0310832 0.0136884 0.00164347 0.0454498 0.0110308 0.0268869 
0.0457848 0.0105138 0.0254506 0.045888 0.0101009 0.0237138 0.0459652 0.00970022 0.0219609 
0.0456438 0.00948748 0.0199606 0.0452658 0.00930617 0.0179353 0.0443893 0.00940143 0.0156905 
0.0434217 0.00955612 0.0134074 0.041908 0.0100674 0.0108943 0.0402682 0.0106739 0.00831756 
0.0380681 0.0117037 0.00545758 0.0357069 0.0128723 0.00248869 0.0327891 0.01452 -0.000856448 
0.0449185 0.0115913 0.0233064 0.0452994 0.0110524 0.0218887 0.0454843 0.0106284 0.0201958 
0.0456462 0.0102169 0.0184879 0.0454562 0.00999755 0.0165505 0.0452152 0.00980977 0.0145896 
0.0445257 0.00990015 0.0124223 0.0437533 0.0100506 0.010219 0.0424837 0.0105614 0.00779873 
0.0410986 0.0111697 0.00531885 0.0392004 0.0122118 0.00257391 0.0371548 0.0133985 -0.000271622 
0.0346 0.0150851 -0.00346461 0.044381 0.0121094 0.0196971 0.0448093 0.0115501 0.0182978 
0.0450767 0.0111168 0.0166491 0.0453242 0.0106963 0.0149866 0.0452659 0.010472 0.0131131 
0.0451624 0.0102796 0.0112176 0.0446604 0.0103667 0.0091295 0.0440837 0.0105145 0.0070075 
0.0430594 0.011026 0.00468207 0.0419306 0.0116372 0.00230112 0.0403369 0.0126916 -0.000326583 
0.03861 0.0138962 -0.00304652 0.0364229 0.0156199 -0.00608508 0.0438158 0.0122115 0.0159875 
0.0443066 0.0116467 0.0145977 0.0446639 0.0112182 0.012989 0.045004 0.0108026 0.011368 
0.0450796 0.0105859 0.00955926 0.0451156 0.0104007 0.0077307 0.0448017 0.0104937 0.0057278 
0.0444219 0.0106469 0.00369379 0.0436462 0.0111618 0.00147312 0.0427781 0.0117765 -0.000798585 
0.0414991 0.0128351 -0.00329708 0.0401036 0.0140457 -0.00587954 0.0383057 0.0157812 -0.0087521 
0.0432488 0.0122865 0.0122714 0.043803 0.0117172 0.0108904 0.0442507 0.0112943 0.00932142 
0.0446838 0.0108846 0.00774171 0.0448936 0.0106762 0.00599787 0.0450692 0.0104992 0.00423632 
0.0449435 0.0105984 0.002319 0.0447605 0.0107576 0.00037341 0.0442337 0.0112761 -0.00174186 
0.0436266 0.0118944 -0.00390364 0.0426629 0.0129567 -0.00627214 0.0415997 0.0141724 -0.00871635 
0.0401923 0.0159181 -0.0114221 0.0426838 0.0119478 0.00859226 0.0433149 0.0113905 0.00720975 
0.0438579 0.0109857 0.00567353 0.0443887 0.010594 0.00412839 0.044731 0.0104016 0.00244652 
0.0450441 0.0102397 0.000749474 0.0451014 0.0103472 -0.00108108 0.0451098 0.010513 -0.0029366 
0.0448258 0.0110291 -0.00494193 0.0444741 0.011643 -0.006989 0.0438216 0.0126917 -0.00922163 
0.0430873 0.0138915 -0.0115222 0.0420705 0.0156129 -0.0140573 0.0465944 0.00123806 0.0434721 
0.0466825 0.00100887 0.0423278 0.0461732 0.000830041 0.0409817 0.0456132 0.000663416 0.0396224 
0.0442754 0.00068385 0.0380629 0.0428434 0.000736488 0.0364766 0.0405828 0.00107251 0.0346552 
0.0381896 0.00146173 0.0327815 0.0350012 0.00217019 0.0305936 0.0316487 0.00294372 0.0283069 
0.027567 0.00400643 0.0255813 0.023291 0.00512784 0.022679 0.018344 0.00645205 0.0191664 
0.0463886 0.00210472 0.0419246 0.0464696 0.00182983 0.0406909 0.0460243 0.0016122 0.0392421 
0.0455323 0.00140656 0.0377803 0.0443243 0.00138475 0.0361192 0.0430266 0.00139452 0.0344332 
0.0409397 0.00168223 0.0325276 0.0387219 0.00202361 0.0305742 0.035719 0.00268691 0.028334 
0.0325475 0.00342018 0.0260027 0.0286269 0.00446436 0.0232666 0.0244992 0.00558186 0.0203642 
0.0196558 0.00695265 0.0168877 0.0461069 0.00312286 0.0398799 0.0461914 0.00280273 0.0385948 
0.0458118 0.00254751 0.0370873 0.0453893 0.00230421 0.0355669 0.0443089 0.00224376 0.033848 
0.0431438 0.0022147 0.0321052 0.0412321 0.00246178 0.0301532 0.039193 0.0027636 0.0281566 
0.0363899 0.00339384 0.0258927 0.0334182 0.00409954 0.0235439 0.0296971 0.00514057 0.0208178 
0.0257636 0.00626966 0.0179355 0.0210968 0.00770294 0.0145135 0.0458033 0.00418485 0.0376912 
0.0458942 0.00381963 0.0363658 0.0455808 0.00352715 0.0348123 0.0452282 0.00324657 0.033246 
0.044275 0.00314855 0.0314819 0.0432418 0.00308182 0.0296949 0.0415057 0.00329049 0.0277074 
0.0396463 0.00355515 0.0256782 0.0370474 0.00415583 0.0233989 0.0342809 0.00483763 0.0210404 
0.0307702 0.00587997 0.0183302 0.0270443 0.00702513 0.0154737 0.0225751 0.0085255 0.0121118 
0.0454243 0.00519184 0.035041 0.045534 0.00478504 0.0336983 0.0452913 0.00446105 0.0321286 
0.0450129 0.00414914 0.0305461 0.044188 0.00402248 0.028769 0.0432885 0.00392734 0.02697 
0.041733 0.00410963 0.0249776 0.0400601 0.00434942 0.0229459 0.0376824 0.00493424 0.0206776 
0.0351424 0.00560554 0.0183352 0.0318808 0.00666118 0.0156634 0.0284081 0.0078328 0.0128549 
0.0242062 0.00940508 0.00957447 0.0450284 0.00618646 0.0322869 0.0451596 0.00573888 0.0309321 
0.0449885 0.00538467 0.0293528 0.0447853 0.00504276 0.0277609 0.044089 0.00488947 0.0259782 
0.0433236 0.004768 0.0241743 0.0419499 0.00492661 0.022184 0.0404649 0.00514429 0.0201564 
0.0383124 0.00571635 0.0179052 0.0360035 0.00638017 0.0155847 0.0329997 0.0074518 0.0129562 
0.0297905 0.00865221 0.0102007 0.0258716 0.0102975 0.00700659 0.0445643 0.00697424 0.029164 
0.044732 0.00649259 0.027807 0.0446403 0.00611716 0.0262345 0.0445197 0.0057544 0.02465 
0.0439563 0.00558597 0.0228823 0.0433294 0.00544982 0.0210944 0.0421441 0.00559768 0.0191285 
0.040855 0.00580599 0.0171274 0.0389436 0.00637698 0.014915 0.0368849 0.00704393 0.0126379 
0.0341719 0.00813732 0.010073 0.0312646 0.00936938 0.00739055 0.0276864 0.0110805 0.00430178 
0.0440889 0.00772756 0.0259796 0.0442956 0.00721294 0.0246221 0.0442845 0.00681779 0.0230591 
0.0442477 0.00643571 0.0214847 0.0438179 0.00625406 0.0197356 0.0433303 0.00610516 0.0179671 
0.0423344 0.00624443 0.0160294 0.0412426 0.00644549 0.0140585 0.0395749 0.00701737 0.0118886 
0.0377697 0.00768921 0.00965841 0.0353528 0.00880531 0.00716053 0.0327539 0.0100695 0.00455437 
0.029526 0.0118453 0.00157416 0.0435591 0.00817881 0.0225488 0.0438221 0.00764117 0.0211909 
0.0439015 0.0072371 0.0196437 0.0439582 0.00684654 0.018086 0.0436676 0.0066631 0.0163664 
0.0433248 0.0065128 0.0146289 0.0425242 0.00665416 0.0127339 0.0416361 0.00685812 0.010808 
0.0402236 0.0074377 0.008697 0.0386853 0.00811961 0.00653018 0.0365875 0.00925629 0.0041155 
0.0343236 0.0105469 0.00160147 0.0314862 0.012369 -0.00125573 0.0430231 0.00859575 0.01909 
0.0433444 0.00803621 0.0177317 0.0435154 0.00762445 0.016201 0.0436668 0.00722664 0.0146606 
0.0435159 0.0070427 0.012972 0.0433186 0.00689229 0.0112668 0.0427139 0.00703696 0.00941615 
0.0420304 0.00724496 0.00753698 0.0408743 0.00783303 0.00548667 0.0396044 0.0085256 0.00338504 
0.0378282 0.00968261 0.00105541 0.0359024 0.0109989 -0.00136468 0.03346 0.0128654 -0.00409725 
0.0424536 0.00866563 0.0155144 0.0428509 0.00809743 0.0141501 0.0431236 0.00768971 0.0126355 
0.0433792 0.00729625 0.0111125 0.0433726 0.0071215 0.00945931 0.0433251 0.00698032 0.00779145 
0.0429187 0.00713454 0.00599418 0.0424423 0.00735197 0.0041711 0.0415468 0.00794861 0.00219322 
0.0405504 0.00864994 0.000168575 0.0391056 0.00981651 -0.00206385 0.0375299 0.0111437 -0.00437842 
0.0355022 0.0130259 -0.00697676 0.0418819 0.00871288 0.0119313 0.0423564 0.00813689 0.0105606 
0.0427314 0.00773396 0.00906208 0.0430918 0.00734561 0.00755626 0.0432298 0.00718069 0.00593892 
0.0433324 0.00704935 0.00430872 0.0431244 0.00721353 0.00256541 0.0428554 0.00744072 0.000799042 
0.0422207 0.00804596 -0.00110566 0.0414982 0.00875591 -0.00305255 0.0403854 0.00993133 -0.00518697 
0.0391606 0.0112685 -0.00739526 0.0375488 0.0131646 -0.00985875 0.0413049 0.00840846 0.00835519 
0.0418724 0.0078417 0.00697121 0.0423568 0.00745597 0.00548602 0.0428289 0.00708479 0.00399503 
0.0431117 0.00693665 0.00241514 0.0433644 0.00682147 0.000824684 0.0433511 0.0069962 -0.000858848 
0.0432855 0.00723256 -0.00256228 0.0429062 0.00783873 -0.00438508 0.0424523 0.00854752 -0.00624547 
0.0416665 0.00971241 -0.00827292 0.0407881 0.0110362 -0.0103668 0.0395895 0.0129089 -0.0126901 
0.0455506 -0.000294471 0.0423996 0.0455564 -0.000638514 0.0415106 0.0449561 -0.000945003 0.0405575 
0.0443036 -0.00123895 0.0395966 0.0428496 -0.0013406 0.0385166 0.0412966 -0.00140748 0.0374137 
0.0388719 -0.00116833 0.0361092 0.0363038 -0.00087009 0.0347525 0.0328752 -0.000217365 0.0330832 
0.0292622 0.000509611 0.0313114 0.0248294 0.00156659 0.0290842 0.0201676 0.00269384 0.0266725 
0.0147146 0.00406388 0.0236231 0.0452467 0.000281546 0.0407357 0.0452357 -7.68671e-05 0.0397248 
0.044697 -0.000388363 0.0386353 0.0441106 -0.000687669 0.0375384 0.0427929 -0.000800081 0.0363284 
0.0413815 -0.00087902 0.0350984 0.0391454 -0.000663405 0.0336915 0.0367685 -0.000389541 0.032239 
0.0335465 0.000233832 0.0305121 0.0301362 0.000934948 0.0286927 0.0258892 0.0019816 0.0264624 
0.0214005 0.00311265 0.0240605 0.0160769 0.0045353 0.0210658 0.0449045 0.00101371 0.0386702 
0.0448908 0.000632862 0.037579 0.0444162 0.000309685 0.0363977 0.0438981 -1.39803e-06 0.0352092 
0.0427123 -0.000127046 0.03391 0.0414383 -0.000219829 0.0325924 0.0393879 -2.34044e-05 0.0311141 
0.0372011 0.000231522 0.0295947 0.0341953 0.000837472 0.027828 0.0310023 0.00152574 0.0259769 
0.0269766 0.00257984 0.0237503 0.0227054 0.00373279 0.0213642 0.017586 0.00522723 0.0184272 
0.0445512 0.00179107 0.0364884 0.0445388 0.00138546 0.0353291 0.0441291 0.00104867 0.0340689 
0.04368 0.000723948 0.0328016 0.0426249 0.000584347 0.0314248 0.041487 0.000477205 0.0300313 
0.0396215 0.000655698 0.0284905 0.0376243 0.000893259 0.0269125 0.0348377 0.00148524 0.0251113 
0.031866 0.00216441 0.0232329 0.0280719 0.00323113 0.021012 0.024031 0.00441122 0.0186435 
0.0191377 0.00598299 0.0157651 0.0441457 0.00254953 0.0339101 0.0441507 0.00211494 0.0327087 
0.0438123 0.00176278 0.0314003 0.0434381 0.00142295 0.0300848 0.0425147 0.00127213 0.028661 
0.0415143 0.00115389 0.0272215 0.0398366 0.00132237 0.025644 0.0380339 0.00155106 0.0240322 
0.0354811 0.00214107 0.0222151 0.0327497 0.00282315 0.020327 0.0292243 0.00391446 0.0181236 
0.0254584 0.0051321 0.0157838 0.0208618 0.00678615 0.0129729 0.0437284 0.00330372 0.0312425 
0.0437546 0.00283921 0.030005 0.0434888 0.0024713 0.0286552 0.0431909 0.00211603 0.0272984 
0.0423994 0.0019546 0.0258344 0.0415367 0.001826 0.0243557 0.0400476 0.00198624 0.0227473 
0.0384405 0.00220798 0.0211074 0.0361248 0.00279871 0.0192786 0.0336378 0.00348639 0.0173846 
0.0303895 0.00460501 0.0152014 0.0269087 0.00586253 0.0128928 0.0226248 0.00759997 0.0101514 
0.0432534 0.00390746 0.0282388 0.0433195 0.00341364 0.0269778 0.0431365 0.00303282 0.025605 
0.0429247 0.00266515 0.0242254 0.0422705 0.00249913 0.0227421 0.041551 0.00236647 0.021245 
0.040257 0.00252732 0.019626 0.038853 0.00275101 0.0179778 0.0367895 0.00335168 0.0161546 
0.0345651 0.00405329 0.0142714 0.0316257 0.00520356 0.0121218 0.0284676 0.00650237 0.00985719 
0.0245538 0.00831439 0.00719512 0.0427688 0.00448611 0.0251791 0.0428778 0.0039631 0.0238968 
0.0427794 0.00356984 0.022504 0.0426553 0.00319027 0.0211047 0.0421394 0.00302067 0.0196056 
0.041564 0.002885 0.0180935 0.0404661 0.00304794 0.0164672 0.0392666 0.00327505 0.0148139 
0.0374577 0.0038872 0.0129994 0.0354989 0.00460413 0.0111298 0.0328738 0.00578677 0.0090161 
0.0300446 0.00712712 0.00679747 0.0265105 0.00901224 0.00421641 0.042231 0.00482739 0.0218775 
0.0424036 0.00428111 0.0205769 0.0424023 0.00388188 0.0191729 0.0423785 0.00349694 0.017763 
0.0420081 0.00333107 0.0162611 0.0415842 0.00319973 0.0147473 0.0406892 0.00337212 0.0131289 
0.0397017 0.0036096 0.011486 0.0381589 0.00423761 0.00969535 0.036479 0.00497271 0.0078544 
0.0341901 0.00618373 0.00578984 0.0317155 0.00755789 0.00362955 0.0285994 0.0094956 0.00113857 
0.0416871 0.0051417 0.0185485 0.0419257 0.00457281 0.0172298 0.0420231 0.00416835 0.0158158 
0.0421007 0.00377878 0.0143962 0.0418768 0.00361749 0.012893 0.0416052 0.0034913 0.011379 
0.0409139 0.00367398 0.00977033 0.0401391 0.00392262 0.00813934 0.0388637 0.004567 0.00637443 
0.0374644 0.00532058 0.00456379 0.0355142 0.00655952 0.00254988 0.0333971 0.00796662 0.000449326 
0.0307034 0.00995459 -0.00195054 0.0411052 0.00517313 0.0150864 0.0414305 0.00459313 0.0137467 
0.0416391 0.00419292 0.0123253 0.0418306 0.00380806 0.0108993 0.0417599 0.00365866 0.00940263 
0.0416471 0.00354462 0.00789668 0.0411635 0.00374169 0.00630951 0.0406056 0.00400475 0.00470258 
0.0396021 0.00466376 0.00297704 0.0384887 0.00543213 0.00121019 0.036886 0.00668656 -0.000740275 
0.0351371 0.00811007 -0.00276935 0.0328829 0.0101177 -0.00506997 0.0405208 0.0051861 0.0116155 
0.0409342 0.00459575 0.0102547 0.0412548 0.00420041 0.00882622 0.0415609 0.00382088 0.00739397 
0.041644 0.00368385 0.00590428 0.0416904 0.00358241 0.00440692 0.0414147 0.00379413 0.00284203 
0.0410739 0.00407183 0.00125994 0.0403428 0.00474536 -0.000425338 0.0395155 0.00552827 -0.00214752 
0.038261 0.00679736 -0.00403371 0.036881 0.00823623 -0.00599053 0.0350673 0.0102616 -0.00819138 
0.0399254 0.00490696 0.00812234 0.0404453 0.00432398 0.00673636 0.0408873 0.00394595 0.00530156 
0.041317 0.00358383 0.0038642 0.0415562 0.00346565 0.0023873 0.041764 0.0033826 0.000904753 
0.0416941 0.00360868 -0.000627582 0.041568 0.00389951 -0.00217415 0.0411044 0.00457885 -0.00380609 
0.0405583 0.0053654 -0.00547061 0.0396458 0.00662843 -0.00727991 0.0386286 0.00805781 -0.009153 
0.0372494 0.0100618 -0.0112465 0.0448145 -0.00202007 0.0416531 0.0448472 -0.00252268 0.0409802 
0.0442354 -0.00300191 0.0403876 0.0435678 -0.00346781 0.0397937 0.0420447 -0.0037292 0.039179 
0.040415 -0.00395175 0.0385481 0.037846 -0.00383247 0.0377748 0.03512 -0.00364562 0.0369547 
0.0314518 -0.00305329 0.0358544 0.0275764 -0.00237414 0.0346554 0.02278 -0.00130916 0.033018 
0.0177167 -0.000158787 0.0311981 0.0117311 0.0012866 0.0287479 0.0443727 -0.00164575 0.0399108 
0.0443757 -0.00212702 0.0390876 0.0438242 -0.00257567 0.0383268 0.0432222 -0.00301169 0.0375653 
0.0418468 -0.00325406 0.0367917 0.0403711 -0.00345998 0.0360056 0.0380132 -0.00334528 0.0351092 
0.0355019 -0.00316571 0.0341741 0.03207 -0.00259696 0.0330064 0.0284276 -0.00193994 0.0317522 
0.0238499 -0.000890635 0.0301135 0.0189925 0.000257284 0.0283077 0.0131695 0.00174587 0.0259244 
0.0439353 -0.00113038 0.0378331 0.0439247 -0.00160795 0.0369056 0.0434347 -0.0020412 0.0360232 
0.0428988 -0.00246212 0.0351401 0.041662 -0.00269398 0.0342469 0.0403312 -0.00289075 0.0333435 
0.0381743 -0.00277874 0.0323493 0.0358693 -0.00260291 0.0313219 0.0326761 -0.00204421 0.0300947 
0.0292745 -0.00139414 0.0287903 0.0249463 -0.000337943 0.027143 0.0203361 0.000830586 0.0253423 
0.0147518 0.0023872 0.0230122 0.0434993 -0.000574174 0.0356583 0.0434797 -0.00105315 0.0346398 
0.0430514 -0.0014754 0.0336492 0.0425819 -0.0018855 0.032658 0.0414809 -0.00210932 0.0316567 
0.0402923 -0.0022991 0.0306469 0.0383335 -0.00218923 0.0295622 0.0362325 -0.00201611 0.028449 
0.0332788 -0.00146355 0.0271645 0.0301202 -0.000816025 0.0258114 0.0260505 0.000253584 0.0241533 
0.0216993 0.0014494 0.0223553 0.0163757 0.00308122 0.0200743 0.0430379 -2.21479e-05 0.0331298 
0.0430282 -0.000515078 0.0320492 0.0426684 -0.000935447 0.0309824 0.0422714 -0.00134345 0.0299148 
0.0413051 -0.00156191 0.0288348 0.0402577 -0.00174654 0.0277472 0.0384959 -0.00163344 0.0265938 
0.0365996 -0.00145665 0.0254152 0.0338954 -0.000897732 0.0240847 0.0309942 -0.000239845 0.0226923 
0.0272169 0.000857902 0.0210248 0.0231668 0.00209415 0.0192296 0.0181745 0.00380885 0.0169932 
0.0425708 0.000528938 0.0305217 0.0425753 1.92314e-05 0.0293855 0.0422854 -0.000401314 0.0282497 
0.0419623 -0.000809195 0.0271129 0.0411305 -0.00102288 0.0259607 0.0402239 -0.00120277 0.0248019 
0.0386591 -0.00108524 0.0235846 0.0369674 -0.000903341 0.022345 0.0345152 -0.00033525 0.0209712 
0.0318746 0.0003359 0.0195417 0.0283973 0.0014651 0.0178652 0.0246578 0.00274473 0.0160727 
0.0200126 0.00454404 0.0138798 0.0420598 0.000966268 0.0275975 0.0421004 0.000434029 0.0264206 
0.0418922 1.03264e-05 0.0252356 0.0416544 -0.00040013 0.0240494 0.0409623 -0.000607472 0.0228459 
0.0402017 -0.000780545 0.0216364 0.0388385 -0.000652062 0.0203737 0.0373575 -0.000458159 0.0190909 
0.0351696 0.00012827 0.017687 0.0328054 0.000821217 0.0162326 0.0296571 0.00198758 0.014554 
0.0262632 0.0033133 0.0127699 0.0220202 0.00518954 0.0106212 0.0415415 0.00138464 0.0246206 
0.0416219 0.000828908 0.0234054 0.0414974 0.000401551 0.0221745 0.0413468 -1.19309e-05 0.0209423 
0.0407951 -0.000212668 0.0196909 0.0401813 -0.000378582 0.0184342 0.0390206 -0.000238059 0.0171291 
0.0377512 -3.09986e-05 0.015806 0.0358298 0.000575297 0.0143743 0.0337444 0.00129146 0.0128971 
0.0309302 0.00249594 0.0112176 0.0278876 0.0038682 0.00944274 0.0240561 0.00582009 0.00733842 
0.040974 0.00161445 0.021402 0.0411184 0.00103696 0.0201531 0.0410927 0.000608402 0.0188867 
0.0410439 0.000194455 0.0176191 0.0406414 4.53356e-06 0.0163343 0.040183 -0.000149862 0.0150447 
0.0392316 8.36182e-06 0.0137131 0.0381812 0.000234022 0.0123653 0.0365366 0.000864311 0.0109205 
0.0347421 0.00160647 0.00943453 0.0322813 0.00284585 0.00776507 0.029613 0.00425771 0.0060089 
0.0262276 0.00626539 0.00395317 0.040401 0.00182284 0.0181558 0.0406121 0.00122378 0.0168738 
0.0406869 0.0007943 0.0155731 0.0407416 0.00038018 0.0142714 0.0404893 0.000201553 0.0129547 
0.0401871 5.91716e-05 0.011634 0.0394459 0.00023574 0.0102775 0.0386153 0.000480618 0.00890686 
0.0372486 0.00113537 0.00745073 0.0357464 0.00190384 0.00595749 0.0336414 0.00317776 0.00429932 
0.03135 0.00462842 0.00256292 0.0284146 0.00668964 0.000556267 0.0397884 0.00180164 0.0147601 
0.0400904 0.00119078 0.0134433 0.0402811 0.000767882 0.0121131 0.0404544 0.000360975 0.0107824 
0.0403613 0.00019925 0.009444 0.040224 7.42425e-05 0.00810272 0.0396981 0.000272343 0.00673581 
0.0390924 0.000538921 0.00535681 0.0380081 0.00121638 0.00390532 0.036803 0.00200756 0.00242058 
0.0350606 0.00330424 0.000788092 0.0331542 0.00477786 -0.000915596 0.0306813 0.00686279 -0.00286524 
0.0391732 0.00176547 0.0113546 0.0395677 0.00114344 0.010003 0.0398753 0.000727616 0.00864357 
0.0401682 0.000328404 0.00728415 0.0402349 0.000183947 0.00592476 0.0402631 7.66639e-05 0.00456363 
0.0399528 0.000296504 0.00318716 0.0395723 0.000584943 0.00180078 0.0387707 0.00128499 0.000354974 
0.037863 0.00209865 -0.00112023 0.0364836 0.00341731 -0.00272611 0.0349628 0.00491288 -0.00439624 
0.0329532 0.00701957 -0.00628836 0.0385447 0.00149113 0.00789905 0.039053 0.000876664 0.00650985 
0.0394897 0.000480666 0.00512405 0.0399138 0.000101522 0.00373912 0.0401452 -1.91875e-05 0.00236748 
0.0403433 -0.000102957 0.000995836 0.0402485 0.000138339 -0.000375841 0.0400925 0.000447193 -0.00175473 
0.0395691 0.0011614 -0.00317692 0.0389538 0.00198693 -0.00462473 0.0379296 0.00330725 -0.00618648 
0.0367857 0.00480034 -0.00780686 0.0352287 0.00689033 -0.00962982 0.0442021 -0.00378446 0.0408937 
0.0443212 -0.00446483 0.0404231 0.0437457 -0.00513935 0.0401844 0.0431101 -0.00579963 0.0399515 
0.0415536 -0.00624173 0.0398061 0.0398817 -0.00664035 0.0396526 0.0371946 -0.0066563 0.0394293 
0.0343359 -0.00659503 0.0391673 0.0304481 -0.00607045 0.0386738 0.0263298 -0.00544498 0.0380898 
0.0211865 -0.00437111 0.037103 0.0157378 -0.00319506 0.0359418 0.00923367 -0.00166601 0.0341782 
0.043606 -0.0035854 0.039109 0.0436796 -0.00420581 0.0384611 0.0431622 -0.00481218 0.0380224 
0.0425911 -0.00540548 0.0375902 0.041195 -0.00579848 0.0372558 0.0396913 -0.00615177 0.0369179 
0.0372405 -0.00615551 0.0365486 0.034623 -0.00608705 0.0361501 0.0310048 -0.00558537 0.0355764 
0.0271533 -0.00498386 0.034926 0.022265 -0.00393868 0.0339354 0.0170588 -0.00277943 0.032788 
0.0107539 -0.00122611 0.0310987 0.0430599 -0.00326843 0.0370405 0.0431056 -0.00385711 0.0362658 
0.0426454 -0.00441979 0.0356761 0.0421368 -0.00497 0.0350929 0.0408859 -0.00532889 0.0346081 
0.0395347 -0.00565033 0.0341222 0.0373015 -0.00564222 0.0336269 0.0349079 -0.00556457 0.0331085 
0.0315527 -0.00506961 0.0324521 0.0279673 -0.00447353 0.0317295 0.0233591 -0.00342805 0.0307131 
0.0184317 -0.00225586 0.0295551 0.0124023 -0.000645936 0.0279083 0.0425285 -0.00291733 0.0348897 
0.0425512 -0.00348245 0.0340029 0.0421478 -0.00400853 0.0332764 0.0417011 -0.00452255 0.0325562 
0.040591 -0.00485167 0.0319321 0.0393879 -0.00514518 0.0313089 0.0373667 -0.00512532 0.0306933 
0.0351922 -0.00503788 0.0300599 0.0320981 -0.00454497 0.02932 0.0287787 -0.00394897 0.0285234 
0.0244576 -0.00289479 0.0274748 0.0198197 -0.00170104 0.0262994 0.0140879 -2.51482e-05 0.0246857 
0.0420003 -0.00256251 0.0324165 0.0420215 -0.00312554 0.0314492 0.0416813 -0.00363184 0.0306194 
0.0413024 -0.00412596 0.0297954 0.0403288 -0.00443327 0.0290605 0.0392693 -0.00470565 0.0283273 
0.037454 -0.00467056 0.0276093 0.0354939 -0.00456833 0.0268769 0.0326654 -0.00406322 0.0260578 
0.0296208 -0.00345215 0.0251891 0.0256161 -0.00237015 0.0240992 0.021306 -0.00113727 0.0228951 
0.0159409 0.000616858 0.0212963 0.0414728 -0.00220685 0.0298708 0.0414974 -0.00277262 0.02883 
0.0412219 -0.00326293 0.0279044 0.0409119 -0.0037408 0.026984 0.0400739 -0.00402811 0.0261448 
0.039157 -0.00428088 0.0253079 0.0375462 -0.00422979 0.0244916 0.0357996 -0.00411164 0.0236637 
0.0332375 -0.00359112 0.0227664 0.0304698 -0.00296157 0.0218258 0.0267882 -0.00184746 0.0206927 
0.0228144 -0.000571489 0.0194575 0.0178315 0.00126364 0.0178693 0.040916 -0.00193401 0.0270214 
0.0409693 -0.00251499 0.0259238 0.0407716 -0.00299823 0.0249234 0.0405432 -0.0034684 0.0239278 
0.0398452 -0.00373825 0.0230052 0.0390752 -0.0039732 0.0220851 0.0376714 -0.00390112 0.0211873 
0.0361416 -0.0037613 0.0202798 0.0338553 -0.00321503 0.0193141 0.0313767 -0.00255696 0.0183099 
0.0280436 -0.00140199 0.0171345 0.0244374 -7.72084e-05 0.015867 0.0198882 0.00183424 0.0142813 