# vtk DataFile Version 2.0
vtk output
ASCII
DATASET RECTILINEAR_GRID
DIMENSIONS 13 13 13
X_COORDINATES 13 float
5 5.20833 5.41667 5.625 5.83333 6.04167 6.25 6.45833 6.66667 
6.875 7.08333 7.29167 7.5 
Y_COORDINATES 13 float
5 5.20833 5.41667 5.625 5.83333 6.04167 6.25 6.45833 6.66667 
6.875 7.08333 7.29167 7.5 
Z_COORDINATES 13 float
2.5 2.70833 2.91667 3.125 3.33333 3.54167 3.75 3.95833 4.16667 
4.375 4.58333 4.79167 5 
POINT_DATA 2197
VECTORS grad float
-0.0527723 0.119807 -0.0525576 -0.0854677 0.0844223 -0.0546354 -0.111078 0.0429104 -0.0555466 
-0.127946 0.000533282 -0.0553513 -0.137688 -0.0425487 -0.0542545 -0.140293 -0.0817687 -0.0519204 
-0.137976 -0.118325 -0.0487329 -0.131583 -0.148163 -0.0440622 -0.122825 -0.174098 -0.0385301 
-0.113095 -0.192364 -0.0314492 -0.102895 -0.20691 -0.0236173 -0.0939332 -0.214506 -0.0146187 
-0.0854665 -0.219322 -0.00515345 -0.0871698 0.155255 -0.0576699 -0.126238 0.111027 -0.059716 
-0.155595 0.059429 -0.0604924 -0.173219 0.00778576 -0.0601731 -0.181284 -0.0438942 -0.0589609 
-0.180226 -0.0898731 -0.0564896 -0.172877 -0.13192 -0.05315 -0.160675 -0.165119 -0.0481698 
-0.145656 -0.19318 -0.0422371 -0.129939 -0.211666 -0.0345148 -0.113882 -0.225509 -0.0259248 
-0.100045 -0.231272 -0.0159894 -0.0870953 -0.233803 -0.0055159 -0.128896 0.194117 -0.0648506 
-0.175431 0.139296 -0.0667399 -0.208855 0.0755984 -0.0672616 -0.226812 0.0130375 -0.0667594 
-0.232164 -0.0485967 -0.0654228 -0.226103 -0.102248 -0.0628437 -0.212171 -0.150395 -0.0594077 
-0.192653 -0.187138 -0.0541411 -0.169891 -0.217259 -0.0478116 -0.146986 -0.235514 -0.0393766 
-0.124012 -0.248016 -0.0299209 -0.104656 -0.251131 -0.0188901 -0.0867471 -0.250491 -0.00722909 
-0.182157 0.227182 -0.0757835 -0.238212 0.160625 -0.0772057 -0.275856 0.0837499 -0.0771803 
-0.293032 0.00970367 -0.0764265 -0.29353 -0.0620374 -0.0750791 -0.28005 -0.123361 -0.0726298 
-0.256929 -0.177501 -0.0694206 -0.227599 -0.217358 -0.0640772 -0.194662 -0.248922 -0.0574946 
-0.162639 -0.265798 -0.0482529 -0.131059 -0.275553 -0.037722 -0.105306 -0.274484 -0.025251 
-0.0818839 -0.269086 -0.012004 -0.244816 0.255523 -0.0897735 -0.312065 0.176298 -0.0904759 
-0.354053 0.0853682 -0.0896653 -0.369543 -0.000625873 -0.088604 -0.36344 -0.0825982 -0.0873384 
-0.340571 -0.151593 -0.0852124 -0.306139 -0.211639 -0.0824931 -0.264963 -0.254261 -0.0772438 
-0.219871 -0.286766 -0.0705253 -0.177156 -0.301327 -0.0604002 -0.135594 -0.307189 -0.0486233 
-0.102728 -0.300685 -0.0344315 -0.0733418 -0.289235 -0.0192736 -0.3198 0.248636 -0.108159 
-0.400334 0.162017 -0.107644 -0.445915 0.0633031 -0.105709 -0.457991 -0.0293306 -0.104544 
-0.442767 -0.11701 -0.104007 -0.407883 -0.190727 -0.103098 -0.35944 -0.254816 -0.101933 
-0.303409 -0.29873 -0.0974605 -0.242974 -0.33093 -0.0910687 -0.18696 -0.341348 -0.0798251 
-0.133091 -0.341205 -0.0662289 -0.0922639 -0.327325 -0.0494608 -0.0566534 -0.307952 -0.0314239 
-0.403285 0.217455 -0.129576 -0.498547 0.127079 -0.127501 -0.547202 0.0249047 -0.124207 
-0.554674 -0.0707079 -0.123079 -0.528588 -0.160974 -0.123718 -0.479876 -0.23738 -0.124642 
-0.415561 -0.304228 -0.125763 -0.342602 -0.348419 -0.122539 -0.264624 -0.379454 -0.116793 
-0.193514 -0.384467 -0.104269 -0.125735 -0.376862 -0.0884582 -0.07636 -0.35427 -0.0685238 
-0.0343467 -0.325682 -0.0469401 -0.481342 0.122403 -0.149835 -0.590198 0.0440981 -0.146784 
-0.641796 -0.0444257 -0.143112 -0.645845 -0.129494 -0.14357 -0.61115 -0.211748 -0.147392 
-0.549834 -0.283751 -0.152482 -0.470158 -0.348684 -0.158447 -0.378524 -0.390299 -0.158105 
-0.279945 -0.418373 -0.154101 -0.190985 -0.416674 -0.139683 -0.106688 -0.400539 -0.120216 
-0.0485933 -0.369226 -0.0952913 -0.000979716 -0.331842 -0.0681837 -0.556249 -0.00973498 -0.16942 
-0.67804 -0.0667799 -0.165732 -0.732503 -0.131717 -0.162254 -0.733816 -0.19839 -0.165196 
-0.691819 -0.266477 -0.173368 -0.618609 -0.329959 -0.183979 -0.52387 -0.390264 -0.196272 
-0.412546 -0.427645 -0.199759 -0.291592 -0.451715 -0.198135 -0.183181 -0.442545 -0.181467 
-0.0808522 -0.417259 -0.157507 -0.0139382 -0.377222 -0.126533 0.0388096 -0.331284 -0.0927529 
-0.590356 -0.160291 -0.176662 -0.718495 -0.186743 -0.175261 -0.779111 -0.217566 -0.17506 
-0.784876 -0.255523 -0.183253 -0.745949 -0.299292 -0.198285 -0.668804 -0.344794 -0.217233 
-0.565301 -0.39149 -0.23888 -0.436733 -0.41933 -0.248243 -0.293612 -0.43622 -0.250473 
-0.165625 -0.421804 -0.230775 -0.044977 -0.392209 -0.200446 0.0290784 -0.350369 -0.161588 
0.0844963 -0.303632 -0.119318 -0.604683 -0.319778 -0.17792 -0.735976 -0.31111 -0.180223 
-0.804336 -0.302716 -0.184795 -0.81804 -0.306953 -0.199581 -0.78721 -0.321482 -0.222689 
-0.70999 -0.344417 -0.251337 -0.600776 -0.373149 -0.283807 -0.456151 -0.388875 -0.300037 
-0.290964 -0.397047 -0.306838 -0.143341 -0.378463 -0.283731 -0.00423407 -0.346906 -0.246123 
0.0761491 -0.30662 -0.198492 0.133042 -0.262844 -0.146851 -0.580299 -0.411514 -0.168062 
-0.706248 -0.378206 -0.174857 -0.780017 -0.340597 -0.184728 -0.802917 -0.315215 -0.20542 
-0.784366 -0.299794 -0.234928 -0.7135 -0.294965 -0.270862 -0.606554 -0.297441 -0.311228 
-0.455893 -0.296007 -0.332627 -0.279849 -0.292301 -0.343012 -0.122072 -0.27491 -0.317865 
0.0268469 -0.250882 -0.275489 0.109611 -0.22316 -0.222341 0.165912 -0.193962 -0.164885 
-0.540431 -0.476151 -0.153757 -0.657636 -0.422391 -0.16536 -0.735881 -0.359571 -0.18074 
-0.768478 -0.306209 -0.207063 -0.76388 -0.260554 -0.242303 -0.701939 -0.225882 -0.284556 
-0.600452 -0.198785 -0.331646 -0.447765 -0.178173 -0.357534 -0.265347 -0.161326 -0.371111 
-0.10121 -0.147271 -0.34447 0.0540631 -0.134569 -0.298329 0.137629 -0.123816 -0.240969 
0.192512 -0.113842 -0.17912 -0.0554449 0.113467 -0.064969 -0.0865773 0.0783039 -0.0655886 
-0.110868 0.0371798 -0.0642571 -0.126549 -0.00481874 -0.0615159 -0.135215 -0.0475298 -0.0576259 
-0.136754 -0.0864027 -0.0526628 -0.133378 -0.122629 -0.0469595 -0.125925 -0.152049 -0.0402446 
-0.116105 -0.177518 -0.0329424 -0.105445 -0.195148 -0.0246988 -0.094378 -0.208977 -0.015999 
-0.0848891 -0.215723 -0.00671265 -0.0760315 -0.219636 0.0028083 -0.0896547 0.145826 -0.0763999 
-0.126987 0.10214 -0.0760517 -0.154951 0.0512634 -0.073421 -0.171376 0.000212451 -0.0694234 
-0.178401 -0.0509802 -0.0643122 -0.176282 -0.0965818 -0.0583017 -0.167857 -0.138328 -0.0516712 
-0.15452 -0.171112 -0.0441185 -0.138331 -0.198693 -0.0360305 -0.121564 -0.216438 -0.0269885 
-0.104517 -0.229414 -0.0174841 -0.090083 -0.234124 -0.00737515 -0.076694 -0.235528 0.00297558 
-0.130955 0.180776 -0.0918024 -0.175575 0.126933 -0.0899874 -0.207564 0.0644038 -0.0854974 
-0.22436 0.00269609 -0.0797849 -0.228776 -0.0583419 -0.0730762 -0.221702 -0.111635 -0.0657634 
-0.206703 -0.159588 -0.058034 -0.185965 -0.195979 -0.0495218 -0.161896 -0.225657 -0.0405549 
-0.137788 -0.243069 -0.0306139 -0.113661 -0.254533 -0.0202006 -0.0936184 -0.256341 -0.00915559 
-0.0752097 -0.254286 0.00214217 -0.183263 0.209234 -0.114392 -0.237176 0.144272 -0.10995 
-0.27348 0.0691495 -0.102342 -0.289722 -0.00380183 -0.0940348 -0.289617 -0.0749838 -0.0851572 
-0.275295 -0.13618 -0.0762762 -0.251169 -0.19049 -0.0673927 -0.220478 -0.230229 -0.057905 
-0.185976 -0.261509 -0.0480663 -0.152464 -0.2774 -0.0371188 -0.119433 -0.28583 -0.0256338 
-0.0928424 -0.283025 -0.0134182 -0.0688272 -0.275727 -0.000910302 -0.244538 0.232402 -0.142837 
-0.309381 0.155537 -0.134823 -0.350236 0.0670551 -0.123072 -0.365171 -0.017618 -0.111453 
-0.358986 -0.0991875 -0.099941 -0.335549 -0.168459 -0.089275 -0.300214 -0.229249 -0.0791924 
-0.25749 -0.272126 -0.0687162 -0.210475 -0.304602 -0.0580115 -0.16588 -0.318005 -0.04597 
-0.122459 -0.32216 -0.0332804 -0.0885534 -0.31335 -0.0197032 -0.0584534 -0.299354 -0.0057709 
-0.317268 0.222264 -0.179393 -0.395141 0.138454 -0.165987 -0.440237 0.0424373 -0.148378 
-0.452615 -0.0491691 -0.132598 -0.438333 -0.137182 -0.118306 -0.403362 -0.212189 -0.106169 
-0.354123 -0.278226 -0.0955173 -0.296082 -0.323169 -0.0844983 -0.232931 -0.355864 -0.073266 
-0.174242 -0.36482 -0.0599769 -0.117718 -0.362265 -0.0456905 -0.075514 -0.345121 -0.0301594 
-0.0390384 -0.322142 -0.0141304 -0.397897 0.189157 -0.221542 -0.49025 0.10182 -0.201488 
-0.539374 0.00228617 -0.17684 -0.548332 -0.0929512 -0.156312 -0.524563 -0.184687 -0.139141 
-0.476389 -0.263816 -0.125749 -0.411386 -0.33425 -0.114963 -0.335764 -0.38052 -0.103709 
-0.253978 -0.41276 -0.092182 -0.179119 -0.415917 -0.0775393 -0.10762 -0.404972 -0.0613858 
-0.0564397 -0.377889 -0.0434924 -0.0133879 -0.344351 -0.0249031 -0.473573 0.0985373 -0.259385 
-0.579672 0.0220583 -0.2333 -0.633273 -0.0653075 -0.202771 -0.640508 -0.151686 -0.179162 
-0.609963 -0.23726 -0.161192 -0.549835 -0.314069 -0.148782 -0.469306 -0.384833 -0.140206 
-0.373525 -0.42999 -0.130244 -0.268887 -0.460279 -0.119479 -0.17413 -0.456187 -0.103135 
-0.084164 -0.435426 -0.0840868 -0.0236601 -0.398128 -0.0624912 0.0250588 -0.354216 -0.0398766 
-0.546374 -0.0254783 -0.294727 -0.665793 -0.0827463 -0.262967 -0.724131 -0.148836 -0.227231 
-0.730627 -0.219104 -0.201509 -0.694881 -0.292775 -0.183949 -0.623525 -0.363524 -0.173819 
-0.527609 -0.432256 -0.168814 -0.410169 -0.474884 -0.161034 -0.280232 -0.502352 -0.151643 
-0.163412 -0.490171 -0.133396 -0.0529524 -0.458764 -0.110856 0.0170778 -0.411092 -0.0847799 
0.0709358 -0.356915 -0.0572896 -0.582267 -0.164582 -0.302339 -0.709157 -0.19361 -0.271507 
-0.775228 -0.228001 -0.237408 -0.787881 -0.271374 -0.214998 -0.757008 -0.322065 -0.202114 
-0.682004 -0.376025 -0.198053 -0.576563 -0.432239 -0.200075 -0.438789 -0.466108 -0.196775 
-0.282239 -0.487003 -0.190383 -0.142053 -0.469513 -0.169784 -0.00980177 -0.433413 -0.142295 
0.0680681 -0.383698 -0.11027 0.124185 -0.328538 -0.076431 -0.600265 -0.311001 -0.296506 
-0.73179 -0.307411 -0.269802 -0.807047 -0.30505 -0.240659 -0.8292 -0.3163 -0.224192 
-0.808084 -0.33864 -0.218054 -0.733108 -0.37061 -0.221897 -0.620986 -0.409221 -0.232623 
-0.463517 -0.431312 -0.234916 -0.279718 -0.443811 -0.232312 -0.115535 -0.422363 -0.209142 
0.0391374 -0.384455 -0.175999 0.124029 -0.336736 -0.137313 0.181008 -0.285093 -0.0964104 
-0.581077 -0.394782 -0.268509 -0.708706 -0.366939 -0.249572 -0.789942 -0.335538 -0.229071 
-0.821807 -0.316326 -0.220556 -0.813442 -0.307045 -0.221809 -0.744471 -0.30868 -0.233019 
-0.633703 -0.317844 -0.251098 -0.467512 -0.320801 -0.258247 -0.269139 -0.320154 -0.259049 
-0.0917549 -0.301389 -0.234562 0.0754524 -0.273839 -0.197812 0.163107 -0.241967 -0.154982 
0.21894 -0.208366 -0.10972 -0.547014 -0.453506 -0.231646 -0.667334 -0.404758 -0.221932 
-0.753268 -0.347403 -0.211546 -0.794928 -0.298392 -0.211788 -0.800511 -0.25618 -0.22069 
-0.739938 -0.224144 -0.239054 -0.633739 -0.199125 -0.263943 -0.463214 -0.180005 -0.275653 
-0.255337 -0.164311 -0.279709 -0.0690707 -0.150886 -0.254407 0.106717 -0.138561 -0.214869 
0.195431 -0.128075 -0.168902 0.249314 -0.118325 -0.120362 -0.0564892 0.0991707 -0.0744759 
-0.0849871 0.0654446 -0.0736333 -0.107194 0.0262305 -0.0702896 -0.121304 -0.0138884 -0.0652961 
-0.128817 -0.0547445 -0.0589584 -0.129499 -0.0920313 -0.0516779 -0.125469 -0.126857 -0.0437472 
-0.117503 -0.155122 -0.0352095 -0.10725 -0.179578 -0.0263195 -0.0962928 -0.196344 -0.0170108 
-0.0849937 -0.209381 -0.00749914 -0.0755067 -0.21543 0.00212074 -0.0667444 -0.218683 0.0117839 
-0.0893373 0.125444 -0.0897787 -0.123527 0.0841706 -0.0872769 -0.149169 0.0363025 -0.081762 
-0.164017 -0.0119691 -0.074622 -0.17007 -0.0605694 -0.0661577 -0.167324 -0.104075 -0.0570538 
-0.15851 -0.144066 -0.0475086 -0.144874 -0.175461 -0.0376627 -0.128437 -0.201865 -0.027642 
-0.111504 -0.218618 -0.0174204 -0.0943307 -0.230693 -0.00710145 -0.0799839 -0.234616 0.00317581 
-0.0667676 -0.235278 0.0134364 -0.128571 0.152764 -0.110037 -0.169429 0.102643 -0.105152 
-0.198862 0.044588 -0.0966283 -0.214155 -0.0131849 -0.0866104 -0.217925 -0.0707277 -0.0753753 
-0.210592 -0.121337 -0.0639731 -0.195601 -0.167166 -0.0524556 -0.174869 -0.201942 -0.0410651 
-0.150803 -0.230301 -0.0297483 -0.126701 -0.246605 -0.0185131 -0.102582 -0.257063 -0.00731755 
-0.0827326 -0.257986 0.00365084 -0.0645919 -0.255093 0.0145284 -0.177238 0.172474 -0.138805 
-0.226508 0.113022 -0.129957 -0.260155 0.0442696 -0.116648 -0.27527 -0.0233927 -0.102366 
-0.275286 -0.0901668 -0.0872919 -0.261413 -0.14818 -0.0729108 -0.237962 -0.200151 -0.0590075 
-0.207726 -0.238172 -0.0458461 -0.17355 -0.268091 -0.0331154 -0.140236 -0.282778 -0.020801 
-0.10734 -0.290078 -0.00868853 -0.0810499 -0.286234 0.00299655 -0.0574026 -0.277934 0.0145106 
-0.233592 0.185986 -0.174508 -0.292695 0.116806 -0.160407 -0.330901 0.0369406 -0.140866 
-0.345332 -0.0409275 -0.121191 -0.340391 -0.117168 -0.101408 -0.318388 -0.182828 -0.0834931 
-0.284618 -0.241191 -0.066867 -0.242915 -0.282344 -0.0517502 -0.196606 -0.313504 -0.0375099 
-0.152415 -0.325622 -0.0240629 -0.109252 -0.328506 -0.0110005 -0.0757563 -0.318459 0.00142205 
-0.046128 -0.303239 0.0135887 -0.29895 0.170658 -0.218827 -0.369725 0.0960286 -0.197179 
-0.412734 0.00998824 -0.169098 -0.425924 -0.0741442 -0.142537 -0.414816 -0.156722 -0.117214 
-0.382758 -0.228375 -0.0954254 -0.33625 -0.292494 -0.0760731 -0.279832 -0.336093 -0.0590841 
-0.217661 -0.367779 -0.0434675 -0.159447 -0.37538 -0.0289311 -0.103153 -0.371303 -0.0149184 
-0.0614179 -0.352562 -0.00170798 -0.0255068 -0.327955 0.0111815 -0.370517 0.13544 -0.269086 
-0.454234 0.0583126 -0.23831 -0.502215 -0.0304975 -0.200098 -0.513779 -0.118176 -0.165621 
-0.495668 -0.204933 -0.134187 -0.452226 -0.281438 -0.108289 -0.391314 -0.350873 -0.0862079 
-0.317942 -0.396448 -0.0674041 -0.237335 -0.428167 -0.0505032 -0.162928 -0.429907 -0.0349071 
-0.0915285 -0.417112 -0.0199437 -0.0408415 -0.38796 -0.00591079 0.00156023 -0.352266 0.0077499 
-0.437628 0.0556747 -0.312403 -0.533963 -0.0127267 -0.273137 -0.587898 -0.0918487 -0.225917 
-0.599877 -0.172923 -0.184845 -0.57767 -0.255588 -0.148782 -0.524008 -0.331658 -0.120111 
-0.448654 -0.40318 -0.0965385 -0.355218 -0.448819 -0.0767844 -0.251283 -0.479429 -0.0592474 
-0.156409 -0.473844 -0.0427928 -0.0659293 -0.450709 -0.026863 -0.00582879 -0.410702 -0.0118545 
0.0421195 -0.363946 0.0027856 -0.502152 -0.0499569 -0.351689 -0.610917 -0.103116 -0.304305 
-0.671375 -0.165316 -0.248729 -0.684955 -0.233892 -0.201829 -0.66034 -0.307662 -0.161996 
-0.597134 -0.380227 -0.131329 -0.507315 -0.451961 -0.106983 -0.39201 -0.496556 -0.0867803 
-0.261907 -0.525393 -0.0689836 -0.144084 -0.511631 -0.0517873 -0.0322153 -0.477215 -0.0348822 
0.0375666 -0.426094 -0.0188091 0.0905133 -0.368292 -0.00306872 -0.537748 -0.164946 -0.357646 
-0.654408 -0.195138 -0.309591 -0.723442 -0.231202 -0.253522 -0.744199 -0.277094 -0.206777 
-0.725619 -0.330994 -0.16763 -0.659179 -0.389058 -0.138186 -0.559732 -0.449993 -0.115432 
-0.422733 -0.486985 -0.0963296 -0.26393 -0.510075 -0.0793467 -0.120974 -0.491203 -0.0617524 
0.0142981 -0.451986 -0.0438617 0.092136 -0.398726 -0.0265977 0.147 -0.339848 -0.00958446 
-0.559319 -0.284473 -0.347444 -0.681675 -0.287951 -0.302329 -0.760279 -0.293412 -0.249577 
-0.790916 -0.311682 -0.20589 -0.782467 -0.34039 -0.169589 -0.715851 -0.378621 -0.142928 
-0.609122 -0.423419 -0.122914 -0.450513 -0.449629 -0.105662 -0.261781 -0.465044 -0.0900137 
-0.0926337 -0.442549 -0.072188 0.0670172 -0.401674 -0.0533068 0.152123 -0.350626 -0.0347908 
0.20741 -0.295507 -0.0164209 -0.548692 -0.353304 -0.311062 -0.668972 -0.334962 -0.273881 
-0.753162 -0.313979 -0.229884 -0.792646 -0.303401 -0.193301 -0.795705 -0.301302 -0.162759 
-0.733845 -0.309048 -0.140659 -0.627215 -0.323585 -0.124382 -0.457951 -0.330156 -0.109676 
-0.252318 -0.332101 -0.0958813 -0.0681728 -0.313277 -0.0785297 0.105554 -0.284383 -0.0594535 
0.193623 -0.250871 -0.0404944 0.247428 -0.215512 -0.0215822 -0.525186 -0.401858 -0.264206 
-0.640281 -0.363651 -0.236958 -0.728462 -0.317888 -0.203892 -0.776382 -0.277972 -0.176032 
-0.791499 -0.24282 -0.152413 -0.736367 -0.215821 -0.135587 -0.63279 -0.194446 -0.123444 
-0.457252 -0.177836 -0.111561 -0.23993 -0.163992 -0.0998289 -0.0452636 -0.151756 -0.0832337 
0.138418 -0.1403 -0.0642809 0.227729 -0.130456 -0.0452023 0.279289 -0.121256 -0.0260734 
-0.0568517 0.0840723 -0.081968 -0.0825382 0.0519972 -0.0797947 -0.102502 0.0149701 -0.0746908 
-0.114951 -0.0229595 -0.0677299 -0.121277 -0.0616243 -0.0592557 -0.121144 -0.0970179 -0.0499346 
-0.116556 -0.130156 -0.0400294 -0.108218 -0.157065 -0.0298545 -0.0977044 -0.180357 -0.019523 
-0.0866253 -0.196217 -0.00921761 -0.0752722 -0.208474 0.00107501 -0.0659329 -0.21392 0.0110707 
-0.057399 -0.216643 0.0209476 -0.0881435 0.104318 -0.0998246 -0.11895 0.0656915 -0.0954682 
-0.142058 0.0211534 -0.0875262 -0.155211 -0.0239587 -0.0777179 -0.160253 -0.0695384 -0.0663888 
-0.156953 -0.11055 -0.0546067 -0.1479 -0.148412 -0.0425123 -0.134182 -0.178167 -0.030636 
-0.117756 -0.203213 -0.0188863 -0.100916 -0.218954 -0.00758715 -0.0838752 -0.230184 0.00349351 
-0.0698182 -0.23349 0.0139718 -0.0569545 -0.233626 0.0242091 -0.125089 0.124206 -0.123166 
-0.161862 0.0780528 -0.11576 -0.188452 0.0248303 -0.103957 -0.202087 -0.0285489 -0.0903777 
-0.205166 -0.0820555 -0.0753517 -0.197685 -0.129469 -0.060467 -0.18292 -0.172682 -0.0456796 
-0.16251 -0.205524 -0.0317786 -0.138822 -0.232344 -0.0183922 -0.115094 -0.247547 -0.00601018 
-0.0913463 -0.257119 0.00588476 -0.0719637 -0.257426 0.0167954 -0.0543272 -0.254029 0.0273123 
-0.169914 0.135739 -0.155458 -0.214111 0.0819862 -0.143193 -0.244688 0.0199502 -0.125449 
-0.25844 -0.0418867 -0.106378 -0.258483 -0.103561 -0.0862272 -0.245206 -0.157705 -0.0672382 
-0.222741 -0.206655 -0.0490507 -0.193425 -0.242525 -0.0327274 -0.160132 -0.2708 -0.0174864 
-0.127553 -0.28435 -0.00400811 -0.0953209 -0.290761 0.00861542 -0.069703 -0.286328 0.0197772 
-0.046731 -0.277557 0.0303542 -0.22116 0.140466 -0.195043 -0.273967 0.0790525 -0.176444 
-0.308942 0.00809784 -0.151065 -0.322515 -0.0623523 -0.125101 -0.318648 -0.132391 -0.0986609 
-0.298258 -0.193531 -0.0747516 -0.266473 -0.248534 -0.0525878 -0.226449 -0.287385 -0.0335182 
-0.18164 -0.316856 -0.0162451 -0.138611 -0.327844 -0.00165964 -0.0964466 -0.329868 0.0116226 
-0.0638522 -0.319275 0.0228878 -0.0350861 -0.303633 0.033346 -0.279143 0.120949 -0.242757 
-0.342107 0.0554803 -0.215347 -0.382131 -0.0203179 -0.17973 -0.395516 -0.0962178 -0.144952 
-0.387195 -0.1722 -0.110858 -0.358225 -0.239215 -0.0811323 -0.315014 -0.300046 -0.0544201 
-0.261191 -0.341463 -0.0323602 -0.201206 -0.371607 -0.0130017 -0.144603 -0.378178 0.00245708 
-0.0896399 -0.373321 0.016025 -0.0490314 -0.354092 0.0269264 -0.014165 -0.329114 0.0367612 
-0.341773 0.0847118 -0.296079 -0.415961 0.0176748 -0.258146 -0.461481 -0.0601568 -0.210497 
-0.474674 -0.139325 -0.165581 -0.461524 -0.219582 -0.122891 -0.42296 -0.291698 -0.0867319 
-0.36687 -0.358201 -0.0550766 -0.297118 -0.401898 -0.0298582 -0.219433 -0.432353 -0.00837753 
-0.1471 -0.433232 0.0077933 -0.0773625 -0.41977 0.0213896 -0.0280244 -0.390199 0.0316051 
0.0131537 -0.354184 0.0404684 -0.400438 0.015915 -0.340502 -0.485853 -0.0443101 -0.292654 
-0.538193 -0.11468 -0.233977 -0.553376 -0.189132 -0.179829 -0.538281 -0.26691 -0.129372 
-0.491149 -0.339835 -0.0872064 -0.421923 -0.409415 -0.0507588 -0.332909 -0.453868 -0.0225937 
-0.232405 -0.483732 0.000762127 -0.139899 -0.477547 0.0169447 -0.0512708 -0.453884 0.0296491 
0.00732258 -0.413524 0.0382246 0.0539017 -0.366485 0.0451485 -0.4568 -0.071788 -0.379758 
-0.553444 -0.120335 -0.322349 -0.613374 -0.17773 -0.253227 -0.631814 -0.24283 -0.190374 
-0.616447 -0.314207 -0.132629 -0.561343 -0.385449 -0.084705 -0.478834 -0.456599 -0.0435527 
-0.368623 -0.500923 -0.0125638 -0.242327 -0.52967 0.0125238 -0.127066 -0.515626 0.0283113 
-0.0171575 -0.480835 0.0395897 0.0509963 -0.429427 0.0459711 0.102448 -0.371373 0.0503937 
-0.491319 -0.163818 -0.383635 -0.595857 -0.194234 -0.324119 -0.66461 -0.230707 -0.252564 
-0.690569 -0.277125 -0.186945 -0.681657 -0.331648 -0.126163 -0.623594 -0.390487 -0.0749432 
-0.531632 -0.452304 -0.0303185 -0.399669 -0.489993 0.0027093 -0.244478 -0.513671 0.0290034 
-0.103912 -0.494897 0.0433539 0.029563 -0.455539 0.0519135 0.105754 -0.40214 0.0550085 
0.15903 -0.343124 0.0559177 -0.515245 -0.257946 -0.370358 -0.626061 -0.267101 -0.312348 
-0.704238 -0.278798 -0.242248 -0.739781 -0.302013 -0.176742 -0.740586 -0.334613 -0.114981 
-0.681993 -0.375852 -0.0616611 -0.582437 -0.423049 -0.0141615 -0.428452 -0.450948 0.0205245 
-0.242863 -0.467642 0.0477704 -0.0757532 -0.445654 0.0601787 0.0823962 -0.404911 0.0653928 
0.165885 -0.353911 0.0646718 0.219508 -0.298808 0.0615768 -0.511849 -0.312499 -0.329538 
-0.622095 -0.302403 -0.278775 -0.705296 -0.290549 -0.216653 -0.748515 -0.287197 -0.156808 
-0.759156 -0.290775 -0.0988182 -0.703994 -0.302695 -0.04716 -0.603449 -0.320369 0.000131628 
-0.437932 -0.329131 0.0345078 -0.234688 -0.332719 0.0613846 -0.052071 -0.314821 0.0716886 
0.120544 -0.286507 0.0739571 0.207113 -0.253415 0.0702341 0.259263 -0.218411 0.0641145 
-0.497524 -0.351222 -0.277701 -0.60446 -0.322679 -0.236481 -0.690926 -0.287763 -0.184948 
-0.741058 -0.2565 -0.132982 -0.761583 -0.228214 -0.0806621 -0.711435 -0.206129 -0.0321713 
-0.612545 -0.18832 0.0136792 -0.439691 -0.174206 0.0469582 -0.223889 -0.162237 0.0729376 
-0.0301794 -0.151353 0.0810725 0.152818 -0.140993 0.0805554 0.24078 -0.132012 0.074156 
0.290727 -0.123583 0.0654036 -0.0556688 0.0671552 -0.0848932 -0.078143 0.037217 -0.0816874 
-0.0955044 0.00300457 -0.0753945 -0.106088 -0.0320339 -0.0671115 -0.11115 -0.0677453 -0.0572067 
-0.110296 -0.100549 -0.0464723 -0.105363 -0.131348 -0.0351657 -0.096979 -0.156446 -0.023774 
-0.0865921 -0.178233 -0.0123328 -0.0757898 -0.193092 -0.00118622 -0.0647861 -0.204591 0.00981755 
-0.0559253 -0.209652 0.0202849 -0.0479217 -0.212138 0.0305377 -0.0849633 0.0815014 -0.102316 
-0.11184 0.0460579 -0.096783 -0.131929 0.0055775 -0.0874497 -0.143124 -0.0355134 -0.0760477 
-0.14707 -0.0771017 -0.0629602 -0.14338 -0.114721 -0.0494417 -0.134424 -0.149603 -0.0356258 
-0.12112 -0.177146 -0.0223152 -0.10529 -0.200428 -0.00929806 -0.0891301 -0.21511 0.00284724 
-0.0728098 -0.225621 0.0145698 -0.0595016 -0.228696 0.0253231 -0.0473982 -0.228796 0.0356888 
-0.119119 0.0944115 -0.124724 -0.151073 0.0527821 -0.116038 -0.174171 0.00520387 -0.102666 
-0.1858 -0.0427412 -0.087213 -0.188084 -0.0909852 -0.0700636 -0.180704 -0.134043 -0.0530719 
-0.166661 -0.173524 -0.036189 -0.147291 -0.203707 -0.0206109 -0.124828 -0.22849 -0.00579053 
-0.102306 -0.242611 0.00740419 -0.0797568 -0.251563 0.0198107 -0.0614593 -0.251872 0.0307064 
-0.0448628 -0.248722 0.0409979 -0.159644 0.0990598 -0.154519 -0.197791 0.0514364 -0.141081 
-0.224365 -0.0030989 -0.121774 -0.236219 -0.0578944 -0.100602 -0.23608 -0.112902 -0.0779105 
-0.223728 -0.16162 -0.0563361 -0.202955 -0.206002 -0.0355318 -0.175616 -0.238745 -0.0172063 
-0.144466 -0.264729 -0.000320146 -0.113842 -0.277298 0.0138618 -0.0834715 -0.283362 0.0267324 
-0.0593661 -0.279359 0.0373872 -0.0377665 -0.271327 0.0471556 -0.20536 0.0969762 -0.190334 
-0.250609 0.0435153 -0.170841 -0.281038 -0.0178624 -0.144052 -0.292947 -0.0795053 -0.115803 
-0.289765 -0.141364 -0.0863632 -0.271397 -0.195924 -0.0593018 -0.242554 -0.245452 -0.0338802 
-0.205697 -0.28069 -0.0124163 -0.164187 -0.307631 0.00674958 -0.124039 -0.317839 0.021868 
-0.0845527 -0.319934 0.0350239 -0.0539721 -0.310359 0.0451253 -0.0269539 -0.296116 0.0540049 
-0.255962 0.0755413 -0.231549 -0.309497 0.0191863 -0.203992 -0.344501 -0.045767 -0.167499 
-0.356684 -0.111715 -0.130314 -0.350272 -0.178473 -0.0925667 -0.324789 -0.23794 -0.0587933 
-0.286154 -0.292377 -0.0277606 -0.237127 -0.329707 -0.00266743 -0.182067 -0.357103 0.0189769 
-0.129649 -0.363384 0.0346213 -0.0785122 -0.359427 0.0473565 -0.0405202 -0.342223 0.0559755 
-0.00778631 -0.319719 0.0629481 -0.309935 0.0407608 -0.276488 -0.372573 -0.0164585 -0.239482 
-0.412646 -0.0827343 -0.191751 -0.425253 -0.151234 -0.144351 -0.415482 -0.221546 -0.097219 
-0.382128 -0.285273 -0.0558888 -0.332511 -0.344459 -0.0185594 -0.269487 -0.383602 0.0105014 
-0.198678 -0.411107 0.0347612 -0.132095 -0.412381 0.0506485 -0.06756 -0.400936 0.0624762 
-0.0215111 -0.374683 0.0689722 0.0171433 -0.342507 0.0733354 -0.360424 -0.0168115 -0.312117 
-0.4323 -0.0686364 -0.266112 -0.478678 -0.129103 -0.20784 -0.493569 -0.193945 -0.150563 
-0.482806 -0.262352 -0.0940958 -0.442349 -0.326681 -0.0447035 -0.381415 -0.388196 -0.000190072 
-0.301529 -0.427683 0.033253 -0.210639 -0.454377 0.0602682 -0.126131 -0.44962 0.0753108 
-0.0447183 -0.429614 0.0845484 0.00986625 -0.394243 0.08704 0.0537193 -0.352727 0.0868332 
-0.40889 -0.0876182 -0.342341 -0.490082 -0.130415 -0.287598 -0.543482 -0.180931 -0.219189 
-0.561738 -0.23851 -0.152232 -0.551358 -0.301843 -0.0864576 -0.504244 -0.364648 -0.0287098 
-0.431796 -0.42709 0.0235029 -0.333386 -0.466065 0.061569 -0.219899 -0.491415 0.0914208 
-0.115284 -0.480033 0.104987 -0.0149727 -0.450841 0.110658 0.0484255 -0.406313 0.108053 
0.0970579 -0.35565 0.102137 -0.440559 -0.159308 -0.343171 -0.528684 -0.187818 -0.285252 
-0.589808 -0.221833 -0.212913 -0.61439 -0.264262 -0.140798 -0.609196 -0.313547 -0.0688668 
-0.559084 -0.365619 -0.00404903 -0.477992 -0.419614 0.0558632 -0.36072 -0.452497 0.0985615 
-0.222439 -0.473122 0.131265 -0.0959575 -0.457798 0.141831 0.0248023 -0.425045 0.141663 
0.095684 -0.379228 0.131931 0.146614 -0.328185 0.118373 -0.464084 -0.231426 -0.32975 
-0.557987 -0.2431 -0.271351 -0.627174 -0.257438 -0.198091 -0.659518 -0.280893 -0.123012 
-0.661841 -0.311778 -0.0464505 -0.610503 -0.348651 0.0248139 -0.522158 -0.389655 0.0924258 
-0.385862 -0.41374 0.139761 -0.221721 -0.428001 0.175322 -0.0725188 -0.410038 0.182149 
0.0694401 -0.376451 0.175043 0.14716 -0.333159 0.157199 0.199185 -0.285986 0.13506 
-0.464903 -0.273218 -0.293443 -0.559029 -0.268528 -0.239664 -0.632304 -0.262877 -0.171588 
-0.670449 -0.26356 -0.0993754 -0.679969 -0.269403 -0.0237916 -0.630564 -0.281107 0.0489217 
-0.540521 -0.296853 0.119656 -0.394208 -0.304583 0.168747 -0.215222 -0.307658 0.205273 
-0.0529242 -0.292921 0.208729 0.101281 -0.269546 0.196152 0.182011 -0.241541 0.172442 
0.233348 -0.211684 0.144278 -0.456641 -0.302881 -0.247982 -0.548766 -0.282013 -0.200863 
-0.624538 -0.256251 -0.140414 -0.6677 -0.232642 -0.0733993 -0.684291 -0.210786 -0.00103568 
-0.638081 -0.193332 0.0711274 -0.548562 -0.178913 0.143152 -0.395837 -0.167265 0.192849 
-0.20641 -0.157226 0.22958 -0.0348673 -0.14806 0.229815 0.128004 -0.139318 0.212354 
0.21021 -0.131703 0.183675 0.260149 -0.12454 0.150507 -0.0539255 0.0515227 -0.0862029 
-0.0732224 0.0236895 -0.0821206 -0.0879666 -0.00774111 -0.0748908 -0.0966592 -0.03988 -0.0655788 
-0.100421 -0.0725959 -0.0545702 -0.0988351 -0.102744 -0.0427223 -0.0935614 -0.131121 -0.0302956 
-0.0851618 -0.154349 -0.0178886 -0.0749472 -0.174587 -0.00549297 -0.0644721 -0.188459 0.00644768 
-0.0538707 -0.199245 0.0181677 -0.0455303 -0.204023 0.0292206 -0.0380943 -0.206398 0.0400067 
-0.0812717 0.0607881 -0.102407 -0.10426 0.0283745 -0.0959592 -0.121294 -0.00820381 -0.0856251 
-0.130473 -0.0453493 -0.0730686 -0.133252 -0.082957 -0.0587014 -0.129144 -0.117143 -0.0438788 
-0.120287 -0.148971 -0.0287423 -0.107448 -0.174258 -0.0142836 -0.0922965 -0.195747 -0.000218443 
-0.0769114 -0.209422 0.0126971 -0.0614129 -0.21931 0.0250551 -0.0489337 -0.222324 0.0362079 
-0.0376623 -0.222588 0.0468787 -0.112774 0.0678318 -0.122909 -0.13996 0.0304013 -0.113349 
-0.159494 -0.0118628 -0.0989857 -0.169012 -0.054566 -0.0822922 -0.17037 -0.0976271 -0.0637003 
-0.163035 -0.136318 -0.0452103 -0.149704 -0.171994 -0.0267907 -0.13145 -0.19948 -0.00993237 
-0.110338 -0.222209 0.0060194 -0.0891744 -0.235344 0.0199163 -0.0679854 -0.243828 0.0328167 
-0.0508993 -0.244386 0.0438396 -0.0354545 -0.241773 0.0541112 -0.14936 0.0669735 -0.14908 
-0.181535 0.0249209 -0.135069 -0.203957 -0.0226756 -0.115025 -0.213703 -0.0707607 -0.0926573 
-0.213121 -0.119244 -0.0683957 -0.201565 -0.162534 -0.0451004 -0.18244 -0.202244 -0.0224714 
-0.157185 -0.231808 -0.00269716 -0.12837 -0.25548 0.0154195 -0.0999315 -0.267213 0.0301675 
-0.0716758 -0.273156 0.043282 -0.0492697 -0.269935 0.0536321 -0.0292035 -0.263048 0.0628763 
-0.190089 0.0596766 -0.17987 -0.227897 0.0133236 -0.160316 -0.253522 -0.0393175 -0.133247 
-0.263405 -0.0926412 -0.103952 -0.260461 -0.146521 -0.0728436 -0.243875 -0.19449 -0.0438158 
-0.217881 -0.238382 -0.0162228 -0.184331 -0.269926 0.00688796 -0.146393 -0.2943 0.0273963 
-0.109461 -0.303927 0.0428891 -0.073018 -0.306403 0.0559502 -0.0447108 -0.298325 0.0651853 
-0.0196582 -0.286025 0.07289 -0.234174 0.037324 -0.213551 -0.27845 -0.0109245 -0.18691 
-0.30797 -0.0660108 -0.150997 -0.318326 -0.122526 -0.113061 -0.313067 -0.180206 -0.0734769 
-0.290665 -0.232014 -0.0373078 -0.256441 -0.279772 -0.00349343 -0.212415 -0.312861 0.0235988 
-0.162698 -0.337433 0.046788 -0.114965 -0.343676 0.0624924 -0.0681931 -0.341032 0.0745678 
-0.0331755 -0.32648 0.0814405 -0.00285984 -0.307166 0.086232 -0.280573 0.00458815 -0.249226 
-0.331896 -0.0438971 -0.214433 -0.365787 -0.099636 -0.16842 -0.376847 -0.157932 -0.120661 
-0.369305 -0.21831 -0.0714793 -0.340545 -0.273379 -0.0271974 -0.297152 -0.324784 0.0137056 
-0.241147 -0.359118 0.045224 -0.17782 -0.38354 0.0712934 -0.117692 -0.385518 0.0868416 
-0.059115 -0.376615 0.0972885 -0.016829 -0.354475 0.100938 0.0189406 -0.32704 0.101869 
-0.323774 -0.0430254 -0.275794 -0.382359 -0.0871798 -0.233109 -0.421715 -0.138373 -0.17739 
-0.434987 -0.193725 -0.119692 -0.427006 -0.252466 -0.0603824 -0.392435 -0.307687 -0.00684682 
-0.339526 -0.360483 0.042707 -0.269246 -0.394643 0.0794699 -0.188879 -0.417984 0.108806 
-0.113382 -0.414987 0.12289 -0.0402466 -0.399219 0.129581 0.00970716 -0.369744 0.127564 
0.050388 -0.334786 0.122065 -0.365118 -0.0992778 -0.297073 -0.431091 -0.136449 -0.246649 
-0.476546 -0.180079 -0.18145 -0.492906 -0.229744 -0.113747 -0.485558 -0.284328 -0.0440019 
-0.445493 -0.337899 0.0194498 -0.382865 -0.390773 0.0785618 -0.296976 -0.423937 0.121044 
-0.197579 -0.445656 0.153871 -0.104987 -0.43727 0.165733 -0.0156932 -0.414287 0.16743 
0.0421602 -0.377624 0.158329 0.0874371 -0.335489 0.144907 -0.393557 -0.153851 -0.295192 