# vtk DataFile Version 2.0
vtk output
ASCII
DATASET RECTILINEAR_GRID
DIMENSIONS 13 13 13
X_COORDINATES 13 float
-5 -4.79167 -4.58333 -4.375 -4.16667 -3.95833 -3.75 -3.54167 -3.33333 
-3.125 -2.91667 -2.70833 -2.5 
Y_COORDINATES 13 float
-10 -9.79167 -9.58333 -9.375 -9.16667 -8.95833 -8.75 -8.54167 -8.33333 
-8.125 -7.91667 -7.70833 -7.5 
Z_COORDINATES 13 float
-7.5 -7.29167 -7.08333 -6.875 -6.66667 -6.45833 -6.25 -6.04167 -5.83333 
-5.625 -5.41667 -5.20833 -5 
POINT_DATA 2197
VECTORS grad float
0.0156961 0.0662661 0.0362482 0.0145331 0.0675829 0.0355085 0.0131174 0.0689402 0.0349142 
0.0114781 0.0703334 0.0344484 0.00958767 0.0716968 0.0340695 0.00750882 0.073038 0.0337557 
0.00516747 0.074234 0.0334413 0.00265988 0.0753378 0.0331267 -9.98618e-05 0.0761403 0.0327067 
-0.00299356 0.0767827 0.0322308 -0.00607566 0.0769476 0.0315383 -0.00924088 0.0769019 0.0307502 
-0.0124595 0.0762197 0.0296441 0.0169684 0.0675022 0.0375499 0.0158617 0.0688646 0.0369695 
0.0144757 0.0702883 0.0365431 0.0128426 0.0717662 0.0362529 0.0109127 0.0732332 0.0360544 
0.00875999 0.0746919 0.0359248 0.00628082 0.0760159 0.0357881 0.00359487 0.0772547 0.0356469 
0.000581663 0.0781882 0.035373 -0.0026054 0.0789595 0.0350286 -0.00605258 0.0792304 0.0344132 
-0.00961451 0.0792805 0.033678 -0.0132786 0.0786527 0.0325427 0.0182466 0.0687812 0.0388511 
0.0171992 0.0701921 0.0384344 0.0158459 0.071686 0.0381803 0.0142221 0.0732533 0.0380701 
0.012255 0.0748293 0.0380569 0.0100306 0.0764117 0.0381165 0.00741464 0.0778707 0.0381624 
0.00455081 0.0792517 0.0381998 0.00128325 0.0803234 0.0380769 -0.00219879 0.081231 0.037869 
-0.00601406 0.0816139 0.0373345 -0.00997636 0.0817654 0.0366559 -0.0140905 0.0811956 0.0354937 
0.0196639 0.0710691 0.040139 0.018748 0.0725975 0.0399898 0.0174978 0.0742511 0.0400133 
0.0159521 0.0760156 0.0401895 0.014005 0.07783 0.0404728 0.0117568 0.0796818 0.0408366 
0.00902948 0.0814369 0.0411837 0.00599878 0.0831308 0.0415203 0.00245618 0.0845109 0.0416645 
-0.00135836 0.0857241 0.0417065 -0.00561274 0.0863633 0.0413473 -0.0100612 0.0867491 0.0408113 
-0.0147348 0.0863201 0.0396734 0.0211019 0.0733191 0.0414354 0.0203234 0.0749679 0.0415608 
0.0191827 0.0767844 0.0418702 0.0177216 0.0787491 0.0423425 0.0158003 0.0808058 0.0429335 
0.0135337 0.0829314 0.0436136 0.0106983 0.0849882 0.0442755 0.0075028 0.0870012 0.0449257 
0.00368376 0.0886964 0.0453514 -0.000466514 0.0902228 0.0456578 -0.00516718 0.0911252 0.0454865 
-0.0101107 0.0917523 0.0451044 -0.0153554 0.091469 0.0439981 0.022773 0.0751428 0.0428267 
0.0221988 0.0769452 0.0433068 0.0212379 0.0789589 0.0439972 0.019935 0.0811596 0.0448737 
0.0181055 0.0835021 0.0458976 0.015881 0.085951 0.0470322 0.012975 0.088371 0.0481611 
0.00963737 0.0907727 0.0492864 0.00552611 0.0928615 0.050156 0.00100384 0.0947839 0.0508897 
-0.00422392 0.0960287 0.0510464 -0.00976294 0.0969746 0.0509484 -0.015711 0.0968941 0.0499542 
0.0244805 0.0768894 0.0442399 0.0241193 0.0788436 0.0450827 0.0233482 0.0810528 0.0461657 
0.0222145 0.0834876 0.047461 0.0204876 0.0861153 0.0489369 0.0183157 0.0888875 0.050548 
0.0153468 0.0916729 0.0521701 0.011873 0.0944666 0.053799 0.00746915 0.0969545 0.0551428 
0.00257117 0.09928 0.0563353 -0.00319553 0.100875 0.0568475 -0.00934548 0.102147 0.0570597 
-0.0160181 0.102275 0.0561939 0.0264487 0.0780838 0.0458096 0.0263634 0.0801772 0.0470729 
0.0258533 0.0825693 0.0486315 0.0249674 0.0852257 0.0504513 0.0234204 0.0881331 0.0525145 
0.0213775 0.0912289 0.0547604 0.018401 0.0943947 0.0570627 0.0148332 0.0976049 0.0594008 
0.0101339 0.100532 0.0614364 0.00483348 0.10331 0.0633115 -0.00155687 0.105308 0.0643778 
-0.00842809 0.106963 0.0650875 -0.0159783 0.107343 0.0644665 0.0284508 0.0791557 0.047404 
0.0286521 0.0813736 0.049095 0.0284163 0.0839327 0.051142 0.0277937 0.0867937 0.0535041 
0.0264433 0.0899641 0.0561804 0.024547 0.0933664 0.0590925 0.0215778 0.0968977 0.0621154 
0.0179291 0.100511 0.0652085 0.0129385 0.103868 0.0679875 0.00723513 0.10709 0.0705998 
0.000207054 0.109489 0.0722707 -0.00740544 0.111525 0.0735263 -0.0158639 0.112156 0.0731802 
0.0306262 0.0795996 0.0491242 0.0311696 0.0818669 0.0512801 0.0312761 0.0845117 0.0538817 
0.030996 0.0874906 0.0568777 0.0299278 0.0908369 0.0602985 0.0282684 0.0944586 0.064038 
0.0253827 0.0982788 0.0679878 0.0217203 0.102225 0.072071 0.01646 0.105963 0.0758581 
0.0103508 0.109592 0.079488 0.00261294 0.112375 0.0820215 -0.00584341 0.114784 0.0840714 
-0.0153671 0.11567 0.084154 0.0327941 0.0798756 0.0508461 0.0336879 0.0821585 0.0534683 
0.0341488 0.0848504 0.056632 0.0342266 0.0879042 0.0602748 0.0334597 0.0913787 0.0644631 
0.0320591 0.0951687 0.0690604 0.0292787 0.0992247 0.0739819 0.0256245 0.103449 0.0791087 
0.0201078 0.107519 0.0839701 0.0136017 0.111505 0.0886905 0.00514658 0.114634 0.0921581 
-0.00416847 0.117384 0.0950729 -0.0147868 0.118506 0.0956281 0.0349329 0.0794971 0.0525744 
0.0362095 0.0816637 0.0556687 0.0370718 0.0842518 0.0594238 0.0375675 0.0872129 0.0637636 
0.0371762 0.0906296 0.0688089 0.0361196 0.0943881 0.0743834 0.0335297 0.098473 0.0804506 
0.0299687 0.102765 0.0868298 0.0242482 0.106968 0.0930239 0.0173804 0.111124 0.0991195 
0.00817852 0.114451 0.103799 -0.00205313 0.117411 0.107854 -0.0138806 0.118699 0.109054 
0.0369719 0.0789253 0.0542475 0.0386271 0.0809232 0.0577997 0.0398901 0.0833445 0.0621343 
0.040806 0.0861404 0.0671612 0.0407987 0.0894139 0.0730603 0.0400991 0.0930454 0.0796133 
0.0377187 0.0970519 0.0868407 0.0342739 0.101296 0.0944951 0.0283734 0.105515 0.102062 
0.0211682 0.109722 0.109581 0.0112361 0.113146 0.11553 0.000100859 0.116223 0.120785 
-0.0129324 0.117623 0.122668 0.0149695 0.0675376 0.0348282 0.0139218 0.0690111 0.0341564 
0.0126089 0.070537 0.0336032 0.0110612 0.0721091 0.0331549 0.00922824 0.0736587 0.0327806 
0.00718132 0.0751914 0.0324618 0.00482529 0.0765735 0.0321387 0.0022735 0.0778601 0.0318128 
-0.000582759 0.0788177 0.0313808 -0.00360077 0.0796006 0.0308923 -0.00685745 0.0798487 0.030184 
-0.0102194 0.079861 0.0293787 -0.0136733 0.0791492 0.0282455 0.0163926 0.0687758 0.0360531 
0.0154128 0.0703214 0.0355331 0.0141397 0.0719415 0.0351436 0.0126071 0.0736274 0.0348696 
0.010739 0.0753115 0.0346773 0.00861925 0.0769944 0.0345464 0.00611781 0.0785386 0.0344065 
0.00337464 0.0799951 0.034261 0.000239578 0.0811175 0.0339825 -0.00310367 0.0820625 0.0336332 
-0.00677087 0.0824443 0.0330073 -0.010581 0.0825776 0.0322594 -0.0145428 0.0819354 0.031096 
0.0178257 0.0700581 0.0372782 0.0169171 0.0716797 0.0369142 0.0156871 0.073399 0.0366927 
0.0141728 0.0752046 0.0365975 0.0122722 0.0770303 0.0365922 0.0100819 0.0788712 0.0366543 
0.00743621 0.0805864 0.0367032 0.00450215 0.082222 0.0367438 0.00108717 0.0835186 0.0366242 
-0.00258331 0.084635 0.0364195 -0.00666479 0.0851584 0.0358806 -0.0109276 0.08542 0.0351942 
-0.0154032 0.0848519 0.034003 0.0194968 0.0723763 0.0385075 0.0187351 0.0741656 0.0383968 
0.0176235 0.0761008 0.0384464 0.0162024 0.078165 0.0386377 0.014332 0.0802984 0.0389354 
0.0121249 0.0824835 0.0393128 0.0093629 0.0845758 0.0396788 0.00624954 0.0866095 0.0400375 
0.00252809 0.0882988 0.0402055 -0.00151641 0.0898053 0.0402721 -0.00610054 0.0906565 0.0399262 
-0.0109227 0.0912187 0.0393983 -0.0160484 0.0908316 0.0382372 0.0211958 0.0746601 0.0397452 
0.0205882 0.0766195 0.0398955 0.0196027 0.0787737 0.0402251 0.0182827 0.0811002 0.0407133 
0.01645 0.0835462 0.0413262 0.0142328 0.0860815 0.0420326 0.0113588 0.0885589 0.0427311 
0.00806891 0.0909994 0.0434245 0.00403935 0.0930917 0.0438968 -0.00038315 0.0949989 0.0442517 
-0.00547912 0.0961884 0.0441134 -0.0108722 0.0970611 0.0437576 -0.0166632 0.0968621 0.0426351 
0.023207 0.076557 0.0410784 0.0228355 0.0787136 0.0415737 0.0220624 0.0811213 0.0422851 
0.0209342 0.0837512 0.0431875 0.0192216 0.0865659 0.0442541 0.0170709 0.0895192 0.0454438 
0.0141336 0.0924692 0.0466478 0.010698 0.095417 0.0478607 0.00634184 0.0980266 0.0488259 
0.00149665 0.100456 0.0496594 -0.0042146 0.102099 0.0498937 -0.0103079 0.103395 0.0498636 
-0.0169358 0.103463 0.0488747 0.025263 0.078378 0.0424324 0.0251395 0.080729 0.0432824 
0.0245925 0.083388 0.0443891 0.0236709 0.0863195 0.0457228 0.0220934 0.0895034 0.0472653 
0.020024 0.0928766 0.0489644 0.0170343 0.0963047 0.0507052 0.0134617 0.0997674 0.0524724 
0.00877914 0.102905 0.0539676 0.00350689 0.105871 0.0553184 -0.00283547 0.107981 0.0559599 
-0.00964994 0.109713 0.0562884 -0.0171443 0.110058 0.0554533 0.0276399 0.0796554 0.0439348 
0.0278504 0.0821803 0.0452087 0.0276267 0.0850747 0.0468083 0.0270189 0.0882958 0.0486961 
0.0256829 0.0918517 0.050874 0.0238006 0.0956586 0.0532693 0.0208377 0.0996037 0.0557716 
0.0171905 0.103636 0.0583416 0.0121827 0.107383 0.0606341 0.006452 0.110977 0.0627793 
-0.000634992 0.113652 0.0640759 -0.00832036 0.11592 0.0649981 -0.0168925 0.116611 0.0644622 
0.0300587 0.0808031 0.0454605 0.030619 0.0834848 0.0471683 0.0307379 0.0865962 0.0492775 
0.0304664 0.0900879 0.0517418 0.0293963 0.0939973 0.0545872 0.0277272 0.09822 0.0577185 
0.0248138 0.102668 0.061034 0.0211122 0.107259 0.0644661 0.0157863 0.111609 0.0676243 
0.00959758 0.115831 0.0706369 0.00174553 0.119074 0.0726567 -0.00684034 0.121884 0.0742386 
-0.0165368 0.122926 0.0740424 0.0326919 0.0812859 0.0471055 0.0336831 0.0840365 0.0492983 
0.0342438 0.0872715 0.0520021 0.0344238 0.0909351 0.0551578 0.0337452 0.0951035 0.0588361 
0.0324228 0.0996505 0.0629065 0.0296741 0.10453 0.0673004 0.0260222 0.109621 0.0718993 
0.0204156 0.114549 0.076273 0.0137705 0.119391 0.0805271 0.00504869 0.12322 0.0836194 
-0.00458941 0.126602 0.0861993 -0.0156482 0.12802 0.0865504 0.0353202 0.0815808 0.048751 
0.0367558 0.0843605 0.0514335 0.0377774 0.0876731 0.054744 0.0384329 0.0914572 0.0586099 
0.0381758 0.0958272 0.0631537 0.0372342 0.100637 0.0682059 0.0346851 0.105884 0.0737418 
0.0311178 0.11141 0.0795841 0.0252519 0.116857 0.0852706 0.0181648 0.122263 0.0908744 
0.00855879 0.126637 0.0951474 -0.00215861 0.130555 0.0988332 -0.0146332 0.13233 0.099798 
0.0379295 0.0811426 0.0503988 0.039862 0.0837965 0.053589 0.0414189 0.0870073 0.0575534 
0.0426436 0.0907108 0.0622029 0.0429247 0.0950585 0.0677389 0.0424979 0.0998894 0.0739399 
0.0402837 0.105257 0.0808656 0.0369374 0.110964 0.0882502 0.0308959 0.1167 0.0956292 
0.0234224 0.122453 0.103005 0.0128759 0.127207 0.10888 0.000973656 0.131521 0.114093 
-0.0131244 0.133579 0.11593 0.0404259 0.0804782 0.0519889 0.0428526 0.0829432 0.0556741 
0.0449473 0.0859746 0.0602835 0.0467485 0.089507 0.0657105 0.0475839 0.0937229 0.0722428 
0.0476951 0.0984515 0.0796039 0.0458478 0.103796 0.0879521 0.0427601 0.109531 0.0969253 
0.036579 0.115397 0.106073 0.0287544 0.121332 0.115314 0.0172831 0.126326 0.122897 
0.00420284 0.130904 0.129749 -0.0115352 0.13317 0.132533 0.014278 0.0687511 0.0333154 
0.0133325 0.0703755 0.0326967 0.0121116 0.0720654 0.0321728 0.0106471 0.0738132 0.031733 
0.00886608 0.0755472 0.0313559 0.0068477 0.0772709 0.0310258 0.00447551 0.0788398 0.0306887 
0.00187925 0.0803107 0.0303472 -0.00107331 0.0814256 0.0299007 -0.00421515 0.0823512 0.0293984 
-0.00764675 0.0826844 0.028676 -0.0112062 0.0827561 0.0278566 -0.014898 0.0820139 0.0267036 
0.0158451 0.0699927 0.0344475 0.0149806 0.0717147 0.0339709 0.0138111 0.0735262 0.0336041 
0.012372 0.0754168 0.0333342 0.0105614 0.0773168 0.0331375 0.00847238 0.0792238 0.0329956 
0.00594811 0.0809901 0.0328442 0.0031482 0.0826671 0.0326869 -0.000108212 0.0839822 0.0323986 
-0.00360714 0.085105 0.0320405 -0.00749544 0.085601 0.0314043 -0.0115555 0.0858205 0.0306454 
-0.0158198 0.0851639 0.0294608 0.0174265 0.0712795 0.0355803 0.0166463 0.073104 0.0352497 
0.0155318 0.0750432 0.035044 0.0141214 0.0770838 0.0349488 0.0122843 0.0791585 0.0349375 
0.0101272 0.0812587 0.0349892 0.0074522 0.0832331 0.0350294 0.00444921 0.0851278 0.0350623 
0.000887584 0.0866547 0.034938 -0.00297081 0.0879861 0.0347302 -0.00732034 0.0886549 0.0341851 
-0.0118866 0.0890314 0.0334911 -0.0167302 0.0884659 0.0322776 0.01934 0.0736285 0.0367279 
0.0187256 0.0756701 0.0366342 0.0177478 0.0778816 0.0366894 0.0164486 0.0802434 0.0368764 
0.0146549 0.0826969 0.0371696 0.0124905 0.0852192 0.0375424 0.0096964 0.0876559 0.0379103 
0.00650343 0.0900384 0.0382751 0.0026046 0.0920481 0.0384541 -0.00166922 0.0938596 0.0385345 
-0.00658634 0.0949335 0.0381967 -0.0117873 0.0956819 0.0376746 -0.0173753 0.095341 0.036496 
0.0212885 0.0759463 0.0378835 0.0208484 0.0782071 0.0380344 0.0200166 0.0806942 0.03836 
0.0188382 0.0833815 0.0388403 0.0170971 0.0862203 0.0394513 0.0149338 0.0891726 0.0401601 
0.012026 0.0920821 0.0408727 0.00864671 0.0949645 0.0415876 0.00440887 0.0974709 0.0420888 
-0.000285069 0.0997775 0.0424765 -0.00578113 0.10127 0.0423629 -0.0116311 0.102404 0.0420281 
-0.0179825 0.102297 0.0408941 0.0236294 0.0779135 0.0391298 0.0234614 0.0804169 0.0396117 
0.0228795 0.0832164 0.0403143 0.0219315 0.0862781 0.0412122 0.0203438 0.089574 0.0422903 
0.0182765 0.0930456 0.0435033 0.0153168 0.0965463 0.0447517 0.0117919 0.100065 0.0460225 
0.00719466 0.103225 0.0470581 0.00202775 0.106194 0.0479686 -0.00417474 0.108264 0.048267 
-0.0108341 0.109938 0.0482952 -0.0181637 0.11017 0.0473145 0.0260241 0.079806 0.0403951 
0.0261436 0.0825482 0.041219 0.0258292 0.0856579 0.0423139 0.0251307 0.0890926 0.0436486 
0.023716 0.0928477 0.045219 0.0217641 0.0968431 0.0469659 0.0187674 0.100945 0.0487864 
0.015109 0.105113 0.0506534 0.0101534 0.108945 0.0522672 0.0045087 0.112598 0.0537465 
-0.00242047 0.115266 0.0544983 -0.0099163 0.117501 0.054929 -0.0182629 0.118087 0.0541258 
0.028805 0.0811625 0.0417963 0.0293225 0.0841172 0.0430409 0.0294006 0.0875199 0.0446381 
0.02909 0.0913188 0.0465474 0.0279873 0.0955477 0.0487908 0.0262904 0.100099 0.0512846 
0.0233639 0.104872 0.0539368 0.0196588 0.109784 0.0566892 0.0143521 0.114418 0.0591963 
0.00819473 0.118905 0.061573 0.000393714 0.122327 0.0630748 -0.00813243 0.125278 0.0641905 
-0.0177742 0.126321 0.0637391 0.0316372 0.0823824 0.0432188 0.0325738 0.0855301 0.0448965 
0.0330705 0.0892053 0.0470161 0.0331782 0.0933472 0.0495266 0.032421 0.0980307 0.0524815 
0.0310151 0.10312 0.0557697 0.0281908 0.108552 0.0593167 0.0244681 0.114201 0.0630275 
0.018822 0.119641 0.0665132 0.0121541 0.12497 0.0698793 0.00345348 0.129159 0.0722181 
-0.00614386 0.132844 0.0741036 -0.0171465 0.134356 0.0740556 0.0347321 0.0829019 0.0447505 
0.0361965 0.0861422 0.046925 0.0372455 0.0899854 0.0496692 0.0379271 0.0943619 0.0529173 
0.0376874 0.0994011 0.0567814 0.0367569 0.104937 0.0611076 0.0341981 0.110971 0.0658728 
0.0306079 0.117319 0.070916 0.0246815 0.123578 0.0758178 0.0175139 0.129791 0.0806445 
0.00777176 0.134821 0.0842658 -0.00310625 0.13933 0.0873554 -0.0158069 0.141372 0.0879762 
0.0378264 0.0832134 0.0462814 0.039838 0.0865006 0.0489604 0.0414665 0.0904583 0.0523458 
0.0427562 0.095009 0.0563562 0.0430773 0.100337 0.0611718 0.042672 0.106247 0.0665913 
0.0404302 0.112808 0.0726582 0.0370252 0.119782 0.0791352 0.0308515 0.126796 0.085585 
0.0232068 0.133833 0.0920203 0.0124004 0.139663 0.0970749 0.000199266 0.144961 0.10152 
-0.0142849 0.147518 0.102903 0.0409188 0.0827139 0.0478095 0.0435527 0.0858694 0.0510225 
0.0458669 0.089733 0.0551141 0.0478984 0.094223 0.0599829 0.0489488 0.0995772 0.0659144 
0.0492634 0.10558 0.072643 0.0475395 0.112382 0.0803376 0.0445247 0.11969 0.088644 
0.0382321 0.127207 0.0971563 0.0301982 0.134835 0.105778 0.0182397 0.141305 0.112853 
0.00454968 0.147264 0.119246 -0.0120512 0.150269 0.121754 0.0438864 0.0819552 0.0492781 
0.0471419 0.0849044 0.0530145 0.0501488 0.0885805 0.0578065 0.0529357 0.0928995 0.0635321 
0.0547424 0.0981444 0.0705919 0.0558139 0.104084 0.0786523 0.0546587 0.110944 0.0880289 
0.0520933 0.118389 0.0982391 0.0457369 0.126199 0.108936 0.0373666 0.134204 0.119892 
0.0242702 0.141128 0.129162 0.00908878 0.147574 0.137687 -0.00967822 0.15093 0.14144 
0.013674 0.0698198 0.0315705 0.0127979 0.0715803 0.0309677 0.0116425 0.073423 0.030444 
0.01024 0.0753386 0.0299903 0.00849709 0.0772527 0.0295915 0.00649881 0.0791657 0.029234 
0.00410674 0.0809231 0.0288701 0.00146529 0.082582 0.0285023 -0.001583 0.0838593 0.0280354 
-0.00484742 0.0849338 0.0275159 -0.00845484 0.0853564 0.026784 -0.0122136 0.0854914 0.0259583 
-0.0161502 0.0847167 0.0248034 0.0153689 0.071068 0.0325698 0.0145902 0.0729492 0.0320943 
0.0135012 0.0749396 0.0317143 0.0121376 0.0770267 0.0314189 0.0103739 0.0791392 0.031191 
0.00831015 0.0812708 0.0310138 0.00576168 0.0832636 0.0308301 0.00290625 0.0851684 0.0306422 
-0.000470268 0.0866853 0.0303311 -0.00412361 0.0879962 0.0299547 -0.00823572 0.0886149 0.0293083 
-0.0125502 0.0889281 0.0285428 -0.0171285 0.0882572 0.0273543 0.0170814 0.0723625 0.0335695 
0.016404 0.0743702 0.0332248 0.0153854 0.0765157 0.0329925 0.0140647 0.0787831 0.0328599 
0.0122837 0.0811046 0.0328079 0.0101575 0.0834665 0.0328165 0.00745422 0.0857078 0.0328188 
0.00438553 0.0878725 0.032817 0.000679234 0.0896433 0.0326681 -0.00336579 0.0912047 0.0324409 
-0.00798796 0.0920317 0.0318853 -0.0128648 0.0925346 0.0311847 -0.0180932 0.0919745 0.0299654 
0.0192089 0.0747433 0.0345782 0.0187241 0.0770157 0.0344472 0.0178685 0.0794904 0.034457 
0.0166847 0.0821441 0.0345914 0.0149674 0.0849209 0.0348332 0.01285 0.0877901 0.0351557 
0.0100301 0.090589 0.035483 0.00676514 0.0933433 0.0358134 0.00269262 0.0957007 0.0359716 
-0.00180892 0.0978471 0.0360384 -0.00706714 0.0991698 0.0356964 -0.0126592 0.100129 0.035174 
-0.0187353 0.099845 0.0339921 0.0213786 0.0770955 0.0355932 0.0210967 0.0796348 0.0356835 
0.0204152 0.0824428 0.0359449 0.0193801 0.0854883 0.0363576 0.0177377 0.0887289 0.036907 
0.0156397 0.0921159 0.0375589 0.0127101 0.0954867 0.0382293 0.00925378 0.0988472 0.0389115 
0.00481324 0.10181 0.0393973 -0.000150196 0.104562 0.0397787 -0.00605826 0.1064 0.0396687 
-0.0123831 0.107834 0.0393419 -0.0193306 0.107839 0.0382081 0.0240228 0.0791258 0.0366806 
0.0240603 0.0819575 0.0370771 0.023678 0.0851436 0.0376969 0.0229243 0.0886433 0.0385141 
0.0214812 0.0924429 0.0395255 0.019521 0.0964675 0.0406826 0.0165615 0.100571 0.041899 
0.012969 0.104724 0.043153 0.00814021 0.108508 0.044196 0.00265455 0.112096 0.045127 
-0.00405856 0.114666 0.0454555 -0.0113132 0.116787 0.045518 -0.0193991 0.117221 0.0445527 
0.0267318 0.0810821 0.0377836 0.0271078 0.0842022 0.0384979 0.0270468 0.0877647 0.0394924 
0.026599 0.0917187 0.0407347 0.0253804 0.0960823 0.0422355 0.0235837 0.100753 0.0439303 
0.0206146 0.105605 0.0457328 0.016903 0.110572 0.0476037 0.0116885 0.115207 0.049254 
0.00567571 0.119664 0.050787 -0.00186811 0.123 0.0516018 -0.0100874 0.125842 0.0520997 
-0.0193628 0.126728 0.0513312 0.029905 0.0825086 0.0389987 0.0307573 0.0858887 0.040114 
0.0311757 0.0898147 0.0416003 0.03121 0.0942236 0.0434147 0.0303964 0.0991871 0.0456008 
0.0289468 0.104567 0.0480657 0.0261137 0.110287 0.0507427 0.0224043 0.116223 0.0535541 
0.0168233 0.121917 0.0561696 0.010248 0.127484 0.0586811 0.00168949 0.13183 0.0603257 
-0.007744 0.135637 0.0615878 -0.0185746 0.137132 0.0612191 0.0331423 0.083792 0.0402315 
0.0344986 0.0874105 0.0417619 0.0354307 0.0916779 0.0437625 0.0359876 0.0965195 0.0461791 
0.0356247 0.102064 0.0490945 0.034572 0.108137 0.0523841 0.0319204 0.11472 0.0560097 
0.028256 0.121627 0.0598482 0.0223273 0.128401 0.0635325 0.0151956 0.135104 0.067135 
0.00558514 0.140494 0.0697176 -0.00511891 0.145307 0.0718504 -0.0175985 0.147436 0.0719465 
0.0367085 0.0843418 0.0415549 0.0387099 0.088088 0.0435729 0.0403322 0.0925843 0.0462033 
0.0416192 0.0977442 0.0493754 0.0419416 0.103776 0.053246 0.0415406 0.110461 0.0576404 
0.0393035 0.117883 0.0625947 0.0359037 0.125772 0.0679036 0.0297235 0.133718 0.0731874 
0.0220664 0.141694 0.0784578 0.0112131 0.148312 0.0825334 -0.00105024 0.154331 0.0860819 
-0.0156594 0.157225 0.0869758 0.0402829 0.0846643 0.0428756 0.0429562 0.0884858 0.0453913 
0.0453069 0.0931496 0.0486724 0.0473724 0.0985583 0.0526305 0.0484427 0.104999 0.0575085 
0.0487666 0.112215 0.0630763 0.0470223 0.120394 0.0694657 0.0439682 0.129183 0.0763755 
0.0375899 0.138237 0.0834339 0.0294457 0.147432 0.0905712 0.0173157 0.15525 0.0963477 
0.0034272 0.162459 0.101524 -0.01345 0.166113 0.103346 0.0438898 0.0840999 0.0441857 
0.047339 0.0877928 0.0472391 0.0505671 0.0923844 0.0512524 0.0535999 0.0977709 0.0561147 
0.0556622 0.104321 0.0622036 0.0569967 0.111743 0.0692124 0.0560499 0.12036 0.0774521 
0.0536585 0.129733 0.0864713 0.0472899 0.139648 0.0959876 0.0388084 0.149849 0.105768 
0.0252693 0.158756 0.114057 0.00949884 0.167092 0.121687 -0.0101856 0.171486 0.124947 
0.0473633 0.0832424 0.0454366 0.051591 0.086719 0.0490199 0.0557107 0.0911263 0.0537638 
0.0597348 0.0963571 0.0595344 0.0628341 0.102847 0.0668575 0.0652397 0.110281 0.0753449 
0.0651744 0.119104 0.0855191 0.063544 0.128806 0.0967616 0.0572757 0.139307 0.108928 
0.0485435 0.150233 0.121585 0.0336076 0.159985 0.132668 0.0159347 0.169219 0.143058 
-0.00667212 0.174224 0.147952 0.0130634 0.0707847 0.029767 0.0122498 0.072669 0.0291597 
0.0111543 0.0746529 0.0286183 0.00980939 0.0767249 0.0281354 0.00810246 0.0788089 0.0277018 
0.00612406 0.0809019 0.0273052 0.00371428 0.0828398 0.0269052 0.0010313 0.0846796 0.0265029 
-0.00210751 0.0861141 0.026011 -0.00548849 0.0873332 0.0254714 -0.00926548 0.0878424 0.0247321 
-0.0132172 0.0880384 0.0239045 -0.0173938 0.0872295 0.0227588 0.0148736 0.0720362 0.0306158 
0.0141743 0.0740626 0.0301177 0.0131607 0.0762189 0.0297033 0.0118691 0.0784902 0.029363 
0.0101511 0.0808042 0.0290863 0.00811343 0.0831503 0.0288575 0.00554412 0.0853613 0.0286271 
0.00263812 0.0874867 0.0283958 -0.00085203 0.0892003 0.0280532 -0.00465251 0.0906953 0.0276516 
-0.0089813 0.0914342 0.0269944 -0.0135432 0.0918396 0.0262245 -0.0184308 0.0911531 0.025043 
0.0167047 0.0733347 0.0314643 0.0161241 0.07551 0.0310786 0.0151968 0.0778474 0.0307949 
0.013963 0.0803282 0.0306014 0.0122379 0.0828846 0.0304865 0.0101445 0.0854976 0.0304307 
0.00741762 0.0879971 0.0303759 0.00428952 0.0904247 0.0303218 0.000446326 0.0924345 0.0301348 
-0.00377677 0.0942223 0.0298772 -0.00866355 0.0952056 0.0293076 -0.0138431 0.0958339 0.0286003 
-0.0194516 0.0952784 0.027386 0.0190276 0.0757382 0.0323059 0.0186675 0.0782235 0.0321067 
0.017931 0.0809451 0.0320407 0.0168614 0.0838756 0.0320925 0.0152222 0.0869629 0.0322532 
0.0131559 0.0901679 0.0324956 0.0103168 0.0933208 0.0327545 0.00698843 0.0964409 0.0330239 
0.00275198 0.099143 0.0331394 -0.00196687 0.101623 0.0331731 -0.00755699 0.103195 0.0328172 
-0.0135315 0.104367 0.0322893 -0.0200914 0.104141 0.0311131 0.0213997 0.0781154 0.0331514 
0.0212723 0.0809133 0.0331459 0.0207394 0.0840238 0.0333068 0.0198481 0.087411 0.0336149 
0.018308 0.0910399 0.034065 0.0162815 0.0948503 0.0346216 0.0133392 0.0986751 0.0352127 
0.00981681 0.102509 0.0358256 0.00518544 0.105928 0.0362649 -3.51068e-05 0.109127 0.0366119 
-0.00634484 0.111314 0.0364891 -0.0131351 0.113053 0.0361589 -0.0206749 0.113173 0.0350323 
0.0243253 0.0801967 0.0340411 0.024566 0.0833358 0.0343101 0.0243838 0.0868899 0.0348018 
0.0238276 0.0908112 0.0354906 0.0225361 0.0951023 0.0363849 0.020693 0.0996707 0.0374333 
0.0177467 0.104374 0.0385646 0.0141018 0.109162 0.0397484 0.00905658 0.113577 0.0407513 
0.00326752 0.117795 0.0416581 -0.00394492 0.120879 0.0419869 -0.0117853 0.123462 0.0420607 
-0.0206261 0.124108 0.0411126 0.0273265 0.0822049 0.0349418 0.0279585 0.0856811 0.035497 
0.0281538 0.0896779 0.0363362 0.0279629 0.0941352 0.0374267 0.0269511 0.0990969 0.0387937 
0.0253239 0.104437 0.040368 0.0223999 0.110042 0.0420823 0.0186547 0.115816 0.0438852 
0.0132005 0.12127 0.045506 0.00683824 0.126555 0.0470299 -0.00130816 0.130584 0.0478633 
-0.0102417 0.13406 0.0483919 -0.0204477 0.135264 0.0476538 0.03087 0.0836895 0.0359215 
0.0320591 0.0874742 0.0368469 0.0328242 0.0919067 0.0381532 0.0332144 0.0969124 0.0397965 
0.0327071 0.102606 0.0418401 0.0315268 0.108815 0.044184 0.0288131 0.115498 0.046788 
0.0251284 0.122482 0.0495569 0.0192991 0.129278 0.0521841 0.0123304 0.135974 0.0547362 
0.00302606 0.141298 0.0564528 -0.00730881 0.146018 0.0578009 -0.0193401 0.148001 0.0574988 
0.0344912 0.0850252 0.0369138 0.0362715 0.089095 0.0382246 0.0376497 0.0939401 0.0400221 
0.0386724 0.0994713 0.0422502 0.0387287 0.105879 0.0450183 0.0380604 0.112945 0.0481914 
0.0356183 0.120711 0.0517678 0.0320527 0.12892 0.0555995 0.0258763 0.137096 0.0593515 
0.0183128 0.145256 0.0630612 0.00780313 0.151939 0.0657874 -0.00400638 0.157972 0.0680799 
-0.0179888 0.160778 0.0682903 0.0385104 0.0855978 0.0379704 0.041057 0.0898328 0.0397441 
0.0432702 0.0949721 0.0421564 0.0451886 0.100912 0.0451339 0.046112 0.107949 0.0488718 
0.0462891 0.115809 0.0531802 0.0444319 0.124679 0.0581517 0.0412862 0.134187 0.0635433 
0.0349059 0.143943 0.069026 0.0268072 0.153831 0.0745571 0.0148497 0.162202 0.0789405 
0.00118984 0.169904 0.0828176 -0.0153888 0.17376 0.0839325 0.0425481 0.085925 0.0390212 
0.0458957 0.0902666 0.0412701 0.0489943 0.095631 0.0443216 0.0518725 0.1019 0.048083 
0.053748 0.10948 0.052851 0.0548713 0.118043 0.058374 0.0537097 0.127929 0.0648666 
0.051101 0.138654 0.0719734 0.0445973 0.149935 0.079401 0.0360243 0.161512 0.0869991 
0.0225734 0.171571 0.0933021 0.00697053 0.180961 0.0990336 -0.012409 0.185884 0.10122 
0.0466579 0.0852947 0.0400497 0.0509417 0.0895144 0.0428218 0.0551221 0.0948346 0.0466067 
0.0592108 0.101128 0.0512876 0.0623699 0.108914 0.0573206 0.0648317 0.117819 0.0643677 
0.0647977 0.128382 0.0728722 0.0631832 0.139996 0.0822998 0.0568699 0.152591 0.0925081 
0.0480605 0.165707 0.103131 0.0329382 0.177456 0.112377 0.0150306 0.188602 0.121015 
-0.00794796 0.194662 0.124925 0.0506276 0.0843387 0.04102 0.0558545 0.0883359 0.0443104 
0.0611391 0.0934808 0.0488314 0.066475 0.0996411 0.0544412 0.0709854 0.107431 0.0617726 
0.0748767 0.116442 0.0703953 0.076099 0.127397 0.0810248 0.075631 0.139583 0.0929251 
0.0696521 0.153152 0.106177 0.0607454 0.167456 0.120146 0.0439652 0.180596 0.132737 
0.0237112 0.193223 0.14472 -0.00307823 0.200268 0.150639 0.0124391 0.0715359 0.0278428 
0.011674 0.0735184 0.0271885 0.0106268 0.0756191 0.0265929 0.0093301 0.0778243 0.0260492 
0.00765497 0.0800572 0.0255536 0.00569602 0.0823108 0.025094 0.00327297 0.0844129 0.0246383 
0.000556015 0.086419 0.0241851 -0.00266259 0.0879997 0.0236585 -0.00614771 0.0893545 0.023093 
-0.0100814 0.0899444 0.0223505 -0.014213 0.0901969 0.02153 -0.0186199 0.0893505 0.0204164 
0.0143391 0.0727833 0.0285044 0.0137059 0.0749263 0.0279352 0.0127574 0.0772216 0.0274424 
0.0115299 0.0796515 0.0270172 0.00985535 0.0821444 0.0266553 0.00784556 0.0846843 0.026341 
0.00526236 0.0870964 0.0260348 0.00231601 0.0894275 0.0257337 -0.00127444 0.0913274 0.0253412 
-0.00520706 0.0929981 0.0249 -0.00973783 0.0938524 0.0242308 -0.0145325 0.0943464 0.0234611 
-0.0197197 0.093642 0.0223092 0.0162629 0.0740781 0.0291642 0.0157664 0.0763893 0.0286827 
0.0149215 0.078889 0.0282959 0.0137683 0.0815553 0.0279929 0.012099 0.0843221 0.0277693 
0.0100424 0.0871643 0.0276052 0.0073014 0.0899044 0.0274539 0.00412686 0.0925799 0.0273109 
0.000162766 0.0948186 0.0270583 -0.00422079 0.0968252 0.0267475 -0.0093556 0.097961 0.0261568 
-0.0148219 0.0987127 0.0254427 -0.0208007 0.0981603 0.0242556 0.0187428 0.0764857 0.0297808 
0.0184972 0.0791473 0.0294499 0.0178736 0.0820819 0.0292452 0.0169154 0.0852581 0.0291523 
0.0153579 0.0886295 0.0291705 0.0133509 0.0921473 0.0292721 0.0105068 0.0956377 0.0294051 
0.00713248 0.0991107 0.029558 0.00275224 0.102151 0.0295856 -0.00216241 0.104963 0.0295466 
-0.00806548 0.106786 0.0291568 -0.0144046 0.108174 0.0286122 -0.0214393 0.108009 0.0274603 
0.0212784 0.0788689 0.030397 0.0212975 0.0818838 0.030223 0.0209102 0.0852594 0.0302089 
0.0201634 0.0889539 0.0303361 0.0187335 0.0929433 0.0306091 0.0167913 0.0971536 0.0309913 
0.0138549 0.101417 0.0314263 0.010289 0.105715 0.0318947 0.00549127 0.109589 0.0322234 
3.91791e-05 0.113239 0.0324778 -0.00665093 0.115782 0.0323082 -0.0138872 0.117838 0.0319516 
-0.0220115 0.11808 0.0308463 0.02444 0.0809763 0.0310092 0.0248794 0.0843793 0.0310635 
0.0248987 0.0882631 0.031334 0.0245464 0.0925721 0.0317959 0.0234209 0.0973294 0.0324687 
0.0217155 0.102423 0.0332998 0.0188095 0.10772 0.0342366 0.0151429 0.113145 0.0352403 
0.00991279 0.118207 0.0361047 0.00385196 0.123077 0.0368952 -0.00383652 0.126702 0.0371632 
-0.0122431 0.129778 0.0372007 -0.0218357 0.130658 0.0362733 0.0276882 0.0830116 0.0316251 
0.028575 0.0867991 0.0319185 0.0290328 0.0911915 0.0324895 0.0291112 0.096119 0.033306 
0.0283285 0.101657 0.0344063 0.0268999 0.107654 0.0357194 0.0240575 0.114018 0.0372004 
0.0203195 0.120614 0.0387877 0.0146647 0.126924 0.0402429 0.00799149 0.133082 0.0416278 
-0.000732547 0.137857 0.0423879 -0.0103614 0.142022 0.0428723 -0.0215017 0.143581 0.0421557 
0.0315569 0.0845298 0.0322678 0.0330862 0.0886761 0.0328781 0.0342117 0.0935805 0.0338621 
0.0349803 0.0991555 0.0351769 0.0348148 0.105569 0.0369021 0.0339489 0.11261 0.0389352 
0.0314088 0.120289 0.0412646 0.0278084 0.128372 0.0437817 0.0217845 0.136352 0.0462212 
0.014473 0.144279 0.0486195 0.00444673 0.150694 0.0502623 -0.00677719 0.156442 0.0515717 
-0.0200336 0.158989 0.0513026 0.035518 0.0858948 0.0329149 0.0377311 0.0903752 0.0338566 
0.0395777 0.0957682 0.0352775 0.0411001 0.101968 0.0371222 0.041627 0.109243 0.0395206 
0.0414074 0.117324 0.0423342 0.0392508 0.126336 0.0455974 0.0358674 0.135938 0.0491453 
0.0295153 0.14566 0.0526949 0.0215861 0.155445 0.0562454 0.0101992 0.163608 0.0589085 
-0.00271322 0.171055 0.0611801 -0.018252 0.174662 0.0614432 0.0399526 0.0864745 0.0335837 
0.0430613 0.0911631 0.0349322 0.0459017 0.0969246 0.0369116 0.0485049 0.103635 0.0394492 
0.0501095 0.111705 0.0427676 0.0509652 0.120793 0.0466718 0.0496074 0.131232 0.0513062 
0.0468476 0.142525 0.056403 0.0403775 0.154347 0.0617072 0.0319362 0.16645 0.0671215 
0.0188889 0.176915 0.0715106 0.00380953 0.186657 0.0754473 -0.0148642 0.191699 0.076676 
0.0444186 0.0867934 0.0342417 0.0484668 0.0916257 0.0360101 0.052366 0.0976797 0.0385737 