# vtk DataFile Version 2.0
vtk output
ASCII
DATASET RECTILINEAR_GRID
DIMENSIONS 13 13 13
X_COORDINATES 13 float
5 5.20833 5.41667 5.625 5.83333 6.04167 6.25 6.45833 6.66667 
6.875 7.08333 7.29167 7.5 
Y_COORDINATES 13 float
-10 -9.79167 -9.58333 -9.375 -9.16667 -8.95833 -8.75 -8.54167 -8.33333 
-8.125 -7.91667 -7.70833 -7.5 
Z_COORDINATES 13 float
0 0.208333 0.416667 0.625 0.833333 1.04167 1.25 1.45833 1.66667 
1.875 2.08333 2.29167 2.5 
POINT_DATA 2197
VECTORS grad float
0.0780149 0.0355659 -0.0707686 0.08894 0.0363995 -0.0711706 0.100481 0.036914 -0.0744585 
0.110213 0.0367559 -0.0823361 0.118472 0.0360496 -0.0939535 0.117963 0.0344609 -0.110665 
0.111409 0.0322636 -0.130889 0.0881694 0.0302655 -0.150546 0.0552417 0.0283831 -0.169873 
0.0122821 0.0294325 -0.175374 -0.0355415 0.0319035 -0.174172 -0.0728437 0.0372266 -0.158552 
-0.105937 0.0436905 -0.137165 0.0789333 0.0316524 -0.070354 0.0895365 0.0317145 -0.0695227 
0.1006 0.0312447 -0.0717772 0.109736 0.0297747 -0.0786471 0.117303 0.0274897 -0.0892777 
0.116334 0.0240211 -0.104757 0.109479 0.0197364 -0.12358 0.0868833 0.015916 -0.141791 
0.055147 0.0123654 -0.159646 0.0140109 0.012997 -0.164871 -0.0316827 0.0156563 -0.163972 
-0.067726 0.0224506 -0.149824 -0.0999092 0.030899 -0.130376 0.0797437 0.0276923 -0.0697786 
0.0899889 0.0269645 -0.0677019 0.100532 0.0254937 -0.0689057 0.109029 0.0226989 -0.0747364 
0.115858 0.0188255 -0.0843369 0.114409 0.0134766 -0.0985201 0.107251 0.00711031 -0.115864 
0.0853555 0.00148175 -0.132551 0.0549035 -0.00371843 -0.148858 0.0157217 -0.00349627 -0.153787 
-0.0276926 -0.000645053 -0.1532 -0.062373 0.00761343 -0.140591 -0.0935597 0.0180349 -0.123173 
0.0780161 0.0226378 -0.0654238 0.0870546 0.020689 -0.0618169 0.0960915 0.0178224 -0.0615677 
0.102923 0.0134004 -0.0656182 0.107957 0.00771108 -0.0731722 0.105544 0.000471899 -0.0845526 
0.0979958 -0.00783615 -0.0985717 0.0781511 -0.0149438 -0.111923 0.0511664 -0.0213545 -0.124887 
0.0170112 -0.0213436 -0.129066 -0.0206206 -0.0182191 -0.128986 -0.0514894 -0.00866233 -0.119489 
-0.0796531 0.00346743 -0.106226 0.0761409 0.0180592 -0.0607157 0.0839867 0.0149412 -0.0556195 
0.0915376 0.0107636 -0.053951 0.0967374 0.00484808 -0.0562576 0.100022 -0.00248351 -0.0618033 
0.0966977 -0.0113913 -0.0704425 0.0888166 -0.0213861 -0.0812154 0.0710401 -0.029742 -0.0913277 
0.0475176 -0.0371464 -0.101057 0.0183471 -0.0372862 -0.104526 -0.013562 -0.0339039 -0.104961 
-0.0406413 -0.0232255 -0.0985168 -0.0657887 -0.00962862 -0.0893206 0.0726045 0.0188366 -0.0520323 
0.0794172 0.0151284 -0.0459075 0.085713 0.0105943 -0.0431997 0.0896671 0.00469007 -0.0441696 
0.0917132 -0.00233043 -0.048136 0.0880647 -0.0104118 -0.0547296 0.0804889 -0.0192248 -0.063135 
0.0649795 -0.0262325 -0.0711043 0.0448634 -0.032192 -0.0788203 0.0202053 -0.0318023 -0.0820331 
-0.00665479 -0.0283341 -0.0830624 -0.0301915 -0.0185218 -0.0789952 -0.0523988 -0.00617179 -0.0728894 
0.0689577 0.0202607 -0.0429326 0.074834 0.0160378 -0.0358978 0.079984 0.0112365 -0.0322563 
0.0828077 0.0054451 -0.0320076 0.083736 -0.00115295 -0.0345235 0.0798436 -0.00830753 -0.0392337 
0.0726268 -0.0158459 -0.0454572 0.059324 -0.0214537 -0.0514635 0.0424875 -0.0259405 -0.0573438 
0.0221392 -0.0250258 -0.0603578 8.81701e-05 -0.0214922 -0.0619822 -0.0200651 -0.0126015 -0.0601746 
-0.0394594 -0.00156801 -0.0569941 0.0645204 0.0263196 -0.0308493 0.0701523 0.0221224 -0.0237538 
0.0749401 0.0176947 -0.0199347 0.0774597 0.0127437 -0.0193153 0.0781309 0.00736625 -0.0213029 
0.0745742 0.00185793 -0.0252929 0.0681015 -0.00374067 -0.0306637 0.0565724 -0.0075782 -0.0359981 
0.0421071 -0.0103932 -0.0413113 0.0246147 -0.00898633 -0.0445444 0.0056546 -0.00553254 -0.0467691 
-0.0122567 0.00203824 -0.0463773 -0.0297484 0.0112558 -0.0449389 0.0601472 0.0329318 -0.0186589 
0.0656304 0.0288498 -0.0116241 0.0701645 0.0248573 -0.00774092 0.0724812 0.0207719 -0.00687091 
0.0729911 0.0166106 -0.00845607 0.0698101 0.0126984 -0.0118632 0.0640837 0.00895775 -0.0165268 
0.0542271 0.00679079 -0.0213108 0.0419724 0.00553758 -0.0261648 0.0271152 0.00738325 -0.0296384 
0.0109963 0.0107314 -0.0324426 -0.00486119 0.0170141 -0.0333612 -0.020614 0.0244706 -0.0335255 
0.0561032 0.0423791 -0.00591967 0.0619275 0.0388715 0.000431455 0.0667641 0.0356295 0.00379774 
0.0693974 0.0325388 0.00430235 0.0702355 0.0295714 0.00247521 0.0676361 0.0269977 -0.00105327 
0.0626661 0.0246957 -0.00575507 0.0539647 0.0236883 -0.0106121 0.0430966 0.0234327 -0.0155594 
0.0297436 0.025444 -0.0193827 0.0151858 0.0285544 -0.022661 0.00041771 0.0337119 -0.0243492 
-0.0144344 0.0396884 -0.0254013 0.052382 0.0521059 0.00623841 0.0585649 0.0492358 0.0118561 
0.0637321 0.0467642 0.0146558 0.0667063 0.0446387 0.0147485 0.0678935 0.0427953 0.0126354 
0.0658591 0.0414516 0.00894596 0.061603 0.0404525 0.00416948 0.0539518 0.0404753 -0.000776249 
0.0443292 0.0410913 -0.00582027 0.032304 0.0432106 -0.00995233 0.0191139 0.0460586 -0.0136422 
0.00527534 0.0501362 -0.0159963 -0.00882258 0.0547057 -0.017816 0.0499198 0.0629229 0.01613 
0.0565293 0.0609358 0.0208201 0.062137 0.0593124 0.0228598 0.0655465 0.0580373 0.022359 
0.0671649 0.0570459 0.0197881 0.0656309 0.056508 0.0157835 0.0619228 0.0562829 0.0107901 
0.0549125 0.0568309 0.00569474 0.0459849 0.0578277 0.000540246 0.0345996 0.05983 -0.00374073 
0.0220227 0.0623197 -0.00759818 0.00849 0.0654937 -0.0102136 -0.00542504 0.0689414 -0.0123323 
0.047941 0.0735822 0.0247359 0.054925 0.0724734 0.028518 0.0609229 0.0716698 0.0298254 
0.0647213 0.0711863 0.0287742 0.0667275 0.0709635 0.0258012 0.0656379 0.0711301 0.0215483 
0.0624135 0.0715652 0.0164127 0.0559523 0.0725405 0.0112535 0.0476117 0.0738294 0.0060807 
0.0367396 0.075678 0.00175743 0.0246401 0.077798 -0.00215393 0.0112899 0.080109 -0.00490801 
-0.00256063 0.0824965 -0.00719917 0.0781402 0.0358803 -0.0749142 0.0858087 0.0379969 -0.0772274 
0.093361 0.03961 -0.0823917 0.098652 0.0405584 -0.0918715 0.1021 0.0409654 -0.104868 
0.0983832 0.0407821 -0.12208 0.0897242 0.0401919 -0.142201 0.069657 0.0398249 -0.160777 
0.0429656 0.0395875 -0.178457 0.00990769 0.0409728 -0.183464 -0.026237 0.0431448 -0.182325 
-0.0557803 0.0468818 -0.167917 -0.082683 0.0512449 -0.148201 0.0804408 0.032974 -0.0746724 
0.0876449 0.0344127 -0.0757992 0.094627 0.035173 -0.0799611 0.0993522 0.0350454 -0.0884581 
0.102238 0.0341944 -0.100487 0.0981943 0.0326011 -0.116557 0.0893708 0.0304958 -0.135412 
0.0696892 0.0288667 -0.152774 0.0437028 0.027514 -0.16927 0.0116657 0.0286264 -0.174055 
-0.023305 0.030934 -0.173162 -0.0521371 0.0356708 -0.159944 -0.0785137 0.0413794 -0.141795 
0.0826467 0.0300656 -0.0742865 0.0893574 0.0308027 -0.0742098 0.0957382 0.0306892 -0.0773476 
0.0998686 0.0294681 -0.0848263 0.102165 0.0273446 -0.0958421 0.097787 0.0243325 -0.110704 
0.0888049 0.0207076 -0.128217 0.0695537 0.0178172 -0.144294 0.0443395 0.0153532 -0.159535 
0.013413 0.0161959 -0.16408 -0.0202831 0.0186419 -0.163439 -0.0483309 0.0243798 -0.15147 
-0.0741191 0.0314345 -0.134971 0.0826284 0.0271058 -0.0705179 0.0881624 0.0265888 -0.0688353 
0.093211 0.025108 -0.0704351 0.0960686 0.022383 -0.0760613 0.0971409 0.0186441 -0.0849684 
0.0922497 0.0140087 -0.0971132 0.0832457 0.00875508 -0.111491 0.0654768 0.00462453 -0.124585 
0.0426182 0.00114611 -0.136935 0.0149089 0.00179297 -0.14081 -0.0151524 0.00444 -0.140576 
-0.040695 0.0112092 -0.131257 -0.06443 0.0196274 -0.118303 0.0824177 0.0246086 -0.0664378 
0.0867945 0.0228605 -0.0631838 0.0905341 0.0200676 -0.0632708 0.0921472 0.0159316 -0.0670694 
0.0920276 0.0107013 -0.0738924 0.0866592 0.00459561 -0.0833615 0.0776708 -0.0021137 -0.0946556 
0.0614071 -0.00733345 -0.104834 0.0409188 -0.0116883 -0.114363 0.0164268 -0.0111995 -0.117595 
-0.0100064 -0.0083623 -0.117773 -0.0330395 -0.000676988 -0.111064 -0.0547126 0.00894758 -0.1016 
0.0800429 0.0273163 -0.0588535 0.0834816 0.0245946 -0.0544148 0.0861717 0.0211117 -0.0532728 
0.0868597 0.0166113 -0.0555238 0.0859164 0.0112818 -0.0605395 0.08047 0.00542697 -0.0677962 
0.0719181 -0.000790095 -0.0765987 0.0574183 -0.0054013 -0.0845925 0.0394648 -0.00908007 -0.0921168 
0.0181926 -0.00832461 -0.0950088 -0.0046886 -0.00541919 -0.0956549 -0.0251637 0.00188561 -0.0911111 
-0.0446764 0.0109502 -0.0844913 0.0774242 0.0305575 -0.0508995 0.0800311 0.0269285 -0.0453938 
0.0817805 0.0228344 -0.0431216 0.0816449 0.0180599 -0.0439322 0.0799735 0.0127309 -0.0472547 
0.0745112 0.00722272 -0.0524406 0.0664345 0.00159103 -0.0589116 0.0536662 -0.00234728 -0.0648734 
0.0381736 -0.00530231 -0.0705394 0.020002 -0.00427392 -0.073138 0.000531535 -0.00131415 -0.0742493 
-0.0174844 0.00555222 -0.0717674 -0.0349185 0.0139812 -0.0678483 0.0730583 0.0376221 -0.0402954 
0.075595 0.0335608 -0.0345669 0.0771819 0.0294209 -0.0318712 0.0769502 0.0250196 -0.0320098 
0.0752366 0.0204052 -0.0344577 0.0702029 0.0159302 -0.0385866 0.0628796 0.0115512 -0.0438748 
0.05161 0.008747 -0.0488939 0.038049 0.0068572 -0.0537567 0.0221236 0.0082033 -0.0563939 
0.00505192 0.0111183 -0.0579519 -0.0112127 0.017131 -0.0567909 -0.0271545 0.0243828 -0.0545422 
0.0686225 0.0449912 -0.0295849 0.0711896 0.040618 -0.0237549 0.0727223 0.0365197 -0.0207463 
0.0724894 0.0325481 -0.0203291 0.070818 0.0286795 -0.0220234 0.0662507 0.025237 -0.0252266 
0.0596862 0.0220883 -0.0294704 0.0498457 0.0203807 -0.033661 0.0381029 0.01951 -0.0378206 
0.024267 0.0211495 -0.040514 0.00941624 0.0240061 -0.0424966 -0.00523686 0.0291733 -0.0425534 
-0.0198109 0.0352647 -0.0418397 0.0638276 0.0539206 -0.0183296 0.0669419 0.0498523 -0.0130197 
0.0689746 0.046244 -0.0102646 0.0692279 0.0429913 -0.00988751 0.0680312 0.0400285 -0.0114481 
0.0641235 0.0376154 -0.0143986 0.058346 0.0355815 -0.0183076 0.0495774 0.0347787 -0.0222545 
0.0390719 0.0346907 -0.0262235 0.0265219 0.036499 -0.029064 0.0129807 0.0392268 -0.0313575 
-0.000777211 0.0435903 -0.0321037 -0.0146217 0.048608 -0.0322309 0.0593049 0.0628419 -0.00752798 
0.062979 0.0591864 -0.00278286 0.0655386 0.056131 -0.00033356 0.0663022 0.0536159 -5.10649e-05 
0.0656023 0.0515412 -0.00153412 0.0623442 0.0501082 -0.00428457 0.0573218 0.049118 -0.00790908 
0.0495424 0.0491498 -0.0116389 0.0401621 0.049775 -0.0154299 0.028756 0.051724 -0.0183821 
0.0163676 0.0543147 -0.0209274 0.00337009 0.0579079 -0.0222599 -0.00987113 0.0619021 -0.0231071 
0.0558429 0.0717312 0.00150408 0.0601272 0.0689099 0.00551015 0.063318 0.0666529 0.00744967 
0.064686 0.0649479 0.00742525 0.0645688 0.0636927 0.00580061 0.0619217 0.0630475 0.00304479 
0.0575297 0.062823 -0.000491149 0.0504171 0.0634161 -0.00410746 0.0417247 0.064484 -0.00777045 
0.0309085 0.0664634 -0.0106954 0.0190626 0.0688847 -0.0132625 0.00629922 0.0718382 -0.0147791 
-0.00683109 0.0750045 -0.0158754 0.0528851 0.0803076 0.00954036 0.0577282 0.0783449 0.0128316 
0.0615054 0.0768899 0.0142788 0.0634388 0.0759719 0.0139697 0.0638699 0.0754915 0.0122295 
0.0617877 0.0755736 0.00950507 0.0579721 0.0760437 0.00610187 0.0514467 0.0771378 0.00266128 
0.0433477 0.0785943 -0.000801019 0.0330076 0.0805877 -0.00360263 0.0215808 0.0828413 -0.00608389 
0.00893406 0.0851935 -0.00766202 -0.0042007 0.087585 -0.00887888 0.0757758 0.0360403 -0.0743048 
0.080863 0.0392504 -0.0774978 0.085432 0.0417723 -0.0831497 0.087829 0.0435817 -0.092264 
0.0884562 0.0448105 -0.104199 0.0834242 0.0455086 -0.119076 0.0744893 0.0458405 -0.13598 
0.0572413 0.0462674 -0.151016 0.0351662 0.0467493 -0.164968 0.00859917 0.0482409 -0.168878 
-0.0201457 0.0502222 -0.167918 -0.0442386 0.0531688 -0.156397 -0.0664705 0.0565015 -0.140652 
0.0792776 0.0339268 -0.0739136 0.0837361 0.03658 -0.0761072 0.0876165 0.0383915 -0.0809203 
0.0893964 0.0393334 -0.0892267 0.0894647 0.0395668 -0.100379 0.0840918 0.0391882 -0.114375 
0.0749662 0.0383876 -0.130332 0.0579145 0.037894 -0.144504 0.0362603 0.0375788 -0.157641 
0.0103207 0.0388814 -0.161419 -0.0176966 0.0409682 -0.160661 -0.041365 0.0446416 -0.150014 
-0.0632936 0.0489497 -0.13541 0.0827043 0.0318462 -0.0733954 0.0865082 0.0339154 -0.0745723 
0.0896756 0.0349933 -0.0785258 0.0908179 0.0350485 -0.0859927 0.0903101 0.0342704 -0.0963223 
0.0845939 0.0328043 -0.109386 0.0752859 0.0308636 -0.124334 0.0584654 0.0294472 -0.137587 
0.0372827 0.0283352 -0.149854 0.0120357 0.0294501 -0.153489 -0.0151818 0.0316449 -0.152937 
-0.0383719 0.0360481 -0.143208 -0.059951 0.0413347 -0.129808 0.0843649 0.03054 -0.0698912 
0.0869063 0.0313877 -0.0696477 0.0887868 0.0311859 -0.072251 0.0888106 0.0299027 -0.0781387 
0.0873217 0.0277386 -0.0867024 0.0812097 0.0249286 -0.0976005 0.0719094 0.0216733 -0.110109 
0.0561413 0.019274 -0.121129 0.0366178 0.0173716 -0.131286 0.0135962 0.0183361 -0.13445 
-0.0111213 0.0206904 -0.134223 -0.0325711 0.0258935 -0.126478 -0.0527139 0.0322361 -0.115724 
0.0857988 0.0296889 -0.0661192 0.0871067 0.0293089 -0.0644809 0.0877306 0.0278562 -0.0657509 
0.0866672 0.0252958 -0.0700741 0.0842287 0.0218327 -0.076885 0.077753 0.017787 -0.0856409 
0.0684929 0.0133395 -0.0957381 0.0538014 0.0100627 -0.104564 0.0359563 0.00746576 -0.112653 
0.0151705 0.00830569 -0.115363 -0.007041 0.010812 -0.115465 -0.0267407 0.0167342 -0.109681 
-0.0454357 0.0240227 -0.101542 0.0846829 0.0339578 -0.0593337 0.0850835 0.0322805 -0.0565902 
0.0847935 0.0299017 -0.0567161 0.0829925 0.0267498 -0.0596409 0.0799602 0.0229681 -0.0648463 
0.0734819 0.0189026 -0.0717184 0.0646269 0.0146413 -0.0797399 0.0512834 0.011674 -0.0867986 
0.0353335 0.00945819 -0.0932982 0.0168999 0.0104668 -0.0957381 -0.00273786 0.0130388 -0.0962095 
-0.0205764 0.0187714 -0.0921414 -0.0376951 0.0257684 -0.0862576 0.0831888 0.0386757 -0.0522338 
0.0828159 0.0357562 -0.0484853 0.0817335 0.0325177 -0.0475473 0.0792984 0.0288505 -0.049158 
0.075761 0.024834 -0.0528453 0.0693383 0.0208302 -0.0579389 0.0609256 0.016835 -0.0640023 
0.0489159 0.0142349 -0.0694021 0.0348175 0.0124448 -0.0744165 0.0186603 0.0136313 -0.0766172 
0.00150489 0.016261 -0.0774536 -0.014539 0.0217579 -0.0750256 -0.0301384 0.0284018 -0.0712919 
0.0789833 0.0466114 -0.0428807 0.0787969 0.0428457 -0.0388448 0.077793 0.0392232 -0.0374174 
0.0754654 0.0355852 -0.0383177 0.0720592 0.0319347 -0.0411145 0.0661087 0.0285768 -0.045184 
0.0584034 0.0254207 -0.0501312 0.047627 0.0236008 -0.0546515 0.0350672 0.022557 -0.0589239 
0.0206431 0.0239873 -0.0611085 0.00531499 0.0266172 -0.0622808 -0.00941184 0.0315473 -0.0609464 
-0.0238982 0.0373974 -0.0586092 0.0745834 0.0546633 -0.0334388 0.0746973 0.050203 -0.0292188 
0.0738863 0.0463038 -0.0273946 0.0717624 0.0427711 -0.0276803 0.0685688 0.0395368 -0.0296852 
0.0631312 0.0368493 -0.0328352 0.0561461 0.0345389 -0.0367749 0.0465578 0.0334922 -0.0405026 
0.035458 0.0331792 -0.0441073 0.022654 0.0348461 -0.0462847 0.00902362 0.0374728 -0.04777 
-0.00449261 0.0418396 -0.0474424 -0.0179632 0.0469023 -0.0463897 0.0691878 0.0633102 -0.0235425 
0.0701844 0.0589327 -0.0196677 0.0701533 0.0553071 -0.017921 0.0687263 0.0522688 -0.0180833 
0.0661619 0.049709 -0.0198011 0.061446 0.0478174 -0.0225675 0.0552463 0.0463864 -0.0260571 
0.0466149 0.0460757 -0.029438 0.0365716 0.0464155 -0.0327558 0.0248087 0.0482814 -0.0349711 
0.0122121 0.0508873 -0.0366519 -0.000639392 0.0547092 -0.0368871 -0.0135929 0.0590176 -0.036544 
0.0640422 0.0717452 -0.0140212 0.0659177 0.0676014 -0.0105272 0.0666847 0.0643473 -0.00890251 
0.0659748 0.0618577 -0.00898826 0.0640615 0.0599909 -0.0104677 0.0600642 0.0588857 -0.0128945 
0.0546297 0.0583058 -0.0159748 0.0468937 0.0587008 -0.0190271 0.0378214 0.059662 -0.0220631 
0.0269875 0.0617215 -0.0242788 0.0152995 0.0643136 -0.0260968 0.00299852 0.0676223 -0.0267991 
-0.00954769 0.0712176 -0.0270551 0.0598713 0.0793536 -0.00596242 0.062611 0.0760319 -0.00298754 
0.0642466 0.0735316 -0.00165917 0.0643329 0.0718019 -0.00185118 0.0631569 0.0707003 -0.00328201 
0.0598663 0.0703453 -0.00554116 0.0551174 0.0705051 -0.00837156 0.0480371 0.071488 -0.011166 
0.039603 0.072949 -0.0139397 0.0292606 0.0751808 -0.0160093 0.0179928 0.0777862 -0.0177375 
0.00579673 0.0807047 -0.018534 -0.00677072 0.0837483 -0.0189579 0.0562466 0.0865446 0.00128482 
0.0597831 0.0840915 0.00376325 0.0622343 0.0823741 0.0048089 0.0630765 0.08141 0.0045275 
0.0626079 0.0810597 0.0031648 0.0599877 0.0814278 0.00110476 0.0558839 0.0822913 -0.0014362 
0.0493966 0.0838351 -0.00391283 0.0415253 0.085774 -0.00635212 0.0315774 0.0881846 -0.00817857 
0.0206227 0.0908239 -0.00970788 0.00842002 0.093397 -0.0104758 -0.00428186 0.0959436 -0.0109391 
0.073322 0.0362457 -0.0734817 0.075891 0.0405163 -0.0775303 0.0775577 0.0439197 -0.0836402 
0.0771535 0.0465635 -0.0923653 0.075062 0.0485883 -0.103221 0.068786 0.0501372 -0.115774 
0.0596243 0.0513578 -0.129498 0.045146 0.0525469 -0.141059 0.0275806 0.0537176 -0.151366 
0.00733233 0.0553081 -0.154206 -0.0142167 0.0571022 -0.153424 -0.0329928 0.0592846 -0.144737 
-0.0506597 0.0616224 -0.132886 0.077989 0.0349131 -0.0729186 0.0797697 0.0387462 -0.0761629 
0.0806327 0.0415794 -0.0816031 0.0795607 0.0435599 -0.0896982 0.0769121 0.0448456 -0.0999566 
0.0702798 0.0456422 -0.11189 0.0609 0.0461015 -0.124978 0.0464343 0.0467011 -0.136016 
0.0290152 0.0473823 -0.145865 0.00901531 0.0488646 -0.148662 -0.0122359 0.0507353 -0.14804 
-0.0308639 0.0533806 -0.139918 -0.0484427 0.0563357 -0.128797 0.0826002 0.0336478 -0.0722452 
0.0835696 0.0370128 -0.0746682 0.083611 0.0392505 -0.0794188 0.0818588 0.0405469 -0.0868565 
0.0786454 0.0410764 -0.0964837 0.0716595 0.0411077 -0.107756 0.062072 0.0407956 -0.120164 
0.0476441 0.0408001 -0.130639 0.0304056 0.0409884 -0.139992 0.0106957 0.0423626 -0.142737 
-0.0102124 0.0443117 -0.142279 -0.0286577 0.0474243 -0.134754 -0.0461177 0.0510025 -0.124404 
0.0858972 0.0339647 -0.0689783 0.0855204 0.0361433 -0.0701794 0.0843183 0.03719 -0.0737762 
0.0815955 0.0373127 -0.0799129 0.0776338 0.0366824 -0.0881191 0.0703612 0.0356446 -0.0977721 
0.0608053 0.0343257 -0.108423 0.0470118 0.0335993 -0.117398 0.0307577 0.0332169 -0.1254 
0.0123152 0.0344853 -0.12787 -0.00718827 0.036554 -0.127656 -0.0246333 0.0402409 -0.121467 
-0.0412548 0.0445751 -0.112888 0.0889347 0.0347286 -0.0654877 0.08725 0.0356863 -0.0654837 
0.0848421 0.0355451 -0.0679353 0.0811826 0.0345238 -0.0727758 0.0765032 0.0327853 -0.0795627 
0.0689728 0.030743 -0.0876014 0.0594762 0.028491 -0.0965034 0.0463421 0.0270954 -0.103991 
0.0310959 0.026197 -0.110656 0.0139407 0.0273744 -0.112856 -0.00414016 0.0295583 -0.11289 
-0.02057 0.033772 -0.108031 -0.0363393 0.0387977 -0.101215 0.0890535 0.0405213 -0.0594809 
0.0864914 0.0398695 -0.0584615 0.0833017 0.0385756 -0.0598622 0.0790857 0.0367458 -0.0634605 
0.0740336 0.0344793 -0.0688493 0.0665707 0.0321591 -0.0753346 0.0574451 0.0298019 -0.0825761 
0.0452524 0.0284312 -0.0887078 0.0312789 0.0276334 -0.0941952 0.0156334 0.0288867 -0.0961936 
-0.000822679 0.0311345 -0.0965003 -0.0160689 0.0353413 -0.0929167 -0.0308312 0.0403317 -0.0877769 
0.0886634 0.0466799 -0.0532172 0.0853851 0.0444629 -0.0512637 0.0815476 0.0420704 -0.0516748 
0.0768809 0.0394939 -0.054092 0.0715383 0.0367676 -0.0581438 0.0641973 0.034237 -0.0631454 
0.0554781 0.0318414 -0.0688019 0.0442307 0.0305465 -0.0736449 0.0315153 0.0298909 -0.0780154 
0.0173454 0.0312322 -0.079829 0.0024705 0.0335418 -0.0804029 -0.011628 0.0377071 -0.0780446 
-0.0254158 0.0426148 -0.0745135 0.0846264 0.0554609 -0.0451127 0.0817865 0.0519965 -0.0428076 
0.0782629 0.0488927 -0.0426675 0.0739019 0.0460129 -0.0443419 0.0688584 0.0433158 -0.0474946 
0.0620302 0.0410579 -0.0515118 0.0539712 0.0391031 -0.056125 0.0436962 0.0382489 -0.0601562 
0.0321344 0.0380339 -0.0638495 0.0191958 0.0395499 -0.0655954 0.00558962 0.0419051 -0.0663971 
-0.00761721 0.0457818 -0.0649069 -0.0206643 0.050267 -0.0625 0.0802746 0.0641743 -0.0369394 
0.0779992 0.0596444 -0.0343669 0.0749102 0.0559558 -0.0337497 0.0709523 0.0528675 -0.0347563 
0.0662864 0.0502682 -0.0370859 0.0600148 0.0483317 -0.0401964 0.052636 0.0468523 -0.0438456 
0.0433122 0.0464607 -0.0471251 0.032859 0.0467007 -0.0501901 0.0210811 0.0484006 -0.0518683 
0.00866089 0.0508083 -0.0528742 -0.00372862 0.054396 -0.0521818 -0.0161058 0.0584556 -0.05081 
0.0743092 0.072541 -0.0284133 0.0732451 0.0678785 -0.0260056 0.0712094 0.0642532 -0.0252906 
0.0681539 0.0614415 -0.0260141 0.0642673 0.0592927 -0.0279096 0.058777 0.0579263 -0.0305126 
0.0521806 0.0570995 -0.0336036 0.0436993 0.0572825 -0.0364394 0.0341236 0.0580518 -0.039127 
0.0231453 0.0599832 -0.0407379 0.0114868 0.0624781 -0.0418267 -0.000466232 0.0657754 -0.0415712 
-0.0125371 0.0693937 -0.0407781 0.0685724 0.0804975 -0.0201849 0.0686994 0.0758947 -0.0179686 
0.0677268 0.0724648 -0.0171929 0.0655903 0.0700185 -0.0176723 0.0625054 0.0683736 -0.0191745 
0.0578001 0.0676068 -0.0213051 0.0519772 0.0674457 -0.023869 0.044298 0.068212 -0.0262707 
0.0355407 0.0695168 -0.0285781 0.0252789 0.0716968 -0.030082 0.0142876 0.0743012 -0.0311963 
0.00267676 0.0773384 -0.0312897 -0.00918184 0.0805488 -0.0309749 0.0637269 0.0868543 -0.0131179 
0.0649669 0.0830616 -0.0111969 0.0650952 0.0803418 -0.0105042 0.0639425 0.078607 -0.010892 
0.061746 0.0776749 -0.01216 0.0578407 0.077623 -0.0139551 0.052757 0.0781783 -0.0161137 
0.0457214 0.0795617 -0.0181187 0.0375523 0.0814259 -0.0200344 0.0276833 0.0839212 -0.0212767 
0.01699 0.0867224 -0.0221926 0.0053541 0.0896176 -0.0222916 -0.00665891 0.0925503 -0.0220639 
0.0594683 0.0926917 -0.00668049 0.0617383 0.0897772 -0.00503449 0.0629066 0.0878215 -0.0044154 
0.0626965 0.0868317 -0.00469974 0.0613632 0.0866288 -0.00572022 0.0582317 0.0872978 -0.00715338 
0.0538602 0.0885682 -0.00887114 0.0474226 0.0905746 -0.010421 0.0397854 0.0930083 -0.0118734 
0.0302292 0.0958487 -0.0127563 0.0197426 0.0988863 -0.0133631 0.00797583 0.101692 -0.0133446 
-0.00430296 0.104404 -0.013076 0.0694973 0.0371483 -0.0693829 0.0705166 0.0419733 -0.0739161 
0.0705223 0.0458383 -0.0800284 0.0687403 0.0489089 -0.0880002 0.0655018 0.0513322 -0.097487 
0.0590681 0.0532656 -0.107924 0.0504309 0.0548613 -0.119017 0.0379642 0.0563279 -0.128108 
0.0232738 0.0577195 -0.136036 0.00670467 0.0592936 -0.138221 -0.0107754 0.0609563 -0.137622 
-0.0262855 0.062778 -0.130929 -0.0410077 0.0646633 -0.121799 0.0747765 0.0364136 -0.0683006 
0.0749186 0.0408957 -0.072351 0.0740562 0.0442976 -0.0780461 0.0715654 0.0468428 -0.0856145 
0.0677476 0.0486901 -0.0947093 0.0609217 0.0500557 -0.104743 0.0520212 0.051089 -0.115424 
0.0394686 0.0521309 -0.124188 0.0247954 0.0531778 -0.13184 0.00831665 0.0546813 -0.134029 
-0.00903739 0.0564063 -0.133568 -0.0245195 0.0585646 -0.127287 -0.0392529 0.0608961 -0.118676 
0.080015 0.035769 -0.0671217 0.0792588 0.0398767 -0.0706756 0.0775136 0.04279 -0.0759369 
0.074305 0.0447896 -0.0830797 0.0699041 0.0460445 -0.0917557 0.0626899 0.0468299 -0.101354 
0.0535356 0.0472914 -0.111589 0.0409167 0.0479032 -0.119998 0.026286 0.0486022 -0.127348 
0.00992781 0.0500352 -0.129533 -0.00726795 0.0518242 -0.129214 -0.022697 0.0543231 -0.123366 
-0.0374194 0.057106 -0.115306 0.0842995 0.0372418 -0.0636759 0.0821441 0.040236 -0.0664074 
0.0791726 0.0420642 -0.0708445 0.0750396 0.0430379 -0.0770408 0.0699602 0.0433153 -0.0846704 
0.0624502 0.0432331 -0.0931017 0.0532638 0.0429029 -0.102086 0.0410392 0.0429558 -0.109457 
0.0270504 0.0432313 -0.115892 0.0115192 0.0445949 -0.117913 -0.00475962 0.0464862 -0.117794 
-0.0195473 0.0494238 -0.112909 -0.0337386 0.0527798 -0.106117 0.088314 0.0391449 -0.0600593 
0.0848038 0.0409741 -0.061973 0.0806487 0.0417051 -0.0655855 0.0756281 0.0416652 -0.0708324 
0.0699023 0.0409972 -0.0774111 0.0621251 0.0400904 -0.084673 0.0529331 0.0390188 -0.0924062 
0.0411264 0.0385556 -0.0987422 0.0278013 0.0384455 -0.104267 0.0131158 0.0397506 -0.106126 
-0.00222939 0.0417419 -0.106207 -0.0163629 0.045086 -0.102284 -0.0300117 0.0489712 -0.0967595 
0.0892911 0.0458891 -0.0545214 0.0849249 0.045974 -0.0556685 0.0800672 0.0454705 -0.0584515 
0.0745736 0.0445549 -0.0627185 0.0685621 0.0433035 -0.0681947 0.0608403 0.0420556 -0.0742611 
0.051939 0.0408101 -0.0807346 0.0408154 0.0403095 -0.0860646 0.0284016 0.0402414 -0.0907307 
0.0147696 0.0416105 -0.0924524 0.000547179 0.0436765 -0.0927466 -0.0127875 0.0470665 -0.0897799 
-0.025767 0.0509861 -0.0855088 0.0896904 0.0529376 -0.048818 0.0846482 0.051314 -0.0492418 
0.0792309 0.0496205 -0.0512297 0.0733737 0.0478801 -0.054553 0.0671581 0.0461013 -0.0589642 
0.059547 0.0445681 -0.0638785 0.0509735 0.0432042 -0.0691396 0.0405452 0.0427098 -0.0735043 
0.0290399 0.0427203 -0.0773487 0.0164432 0.0441672 -0.0789412 0.00331731 0.0463105 -0.0794419 
-0.00924287 0.0497235 -0.0773965 -0.0215768 0.0536443 -0.0743327 0.0859495 0.0621669 -0.0419273 
0.0815203 0.0590913 -0.0419391 0.0765686 0.0565263 -0.0433786 0.071131 0.0543256 -0.0460171 
0.0652975 0.0524219 -0.0496326 0.0581936 0.051003 -0.0537048 0.0502135 0.0499186 -0.058092 
0.0405665 0.0497425 -0.0617837 0.0299517 0.0500937 -0.0650714 0.018258 0.0517174 -0.0665905 
0.00604137 0.0539579 -0.0672519 -0.00591865 0.0572298 -0.0658781 -0.017776 0.0609142 -0.06369 
0.0818297 0.0712154 -0.0350213 0.0781471 0.0668844 -0.0346719 0.0737856 0.0635819 -0.0356099 
0.0688671 0.0610226 -0.0376129 0.0634945 0.059069 -0.0404835 0.0569458 0.0578219 -0.0437654 
0.0495858 0.0570619 -0.047331 0.0407132 0.0572378 -0.0503868 0.0309623 0.0579571 -0.0531467 
0.0201232 0.0597774 -0.0545857 0.00875642 0.0621315 -0.0553842 -0.00266192 0.0652682 -0.0546252 
-0.0141009 0.0687179 -0.0532432 0.0757683 0.079337 -0.0280368 0.073517 0.0747581 -0.0275863 
0.0703845 0.0714051 -0.0282638 0.0664944 0.0690079 -0.029883 0.0619872 0.0673897 -0.0322695 
0.0562392 0.0666079 -0.0350263 0.0496356 0.066403 -0.0380384 0.0415021 0.0671042 -0.04065 
0.0324802 0.0683317 -0.043029 0.0222464 0.0704505 -0.0443541 0.0114252 0.0730015 -0.0451682 
0.000248795 0.0760331 -0.0447338 -0.0110697 0.0792569 -0.0437999 0.0699251 0.0869345 -0.0212957 
0.0690742 0.0823215 -0.020767 0.0671758 0.0790673 -0.0212113 0.0643303 0.0769394 -0.0224744 
0.0607132 0.0757292 -0.0244046 0.0557775 0.0754642 -0.0266574 0.0499323 0.0758511 -0.0291327 
0.0425132 0.0771104 -0.0312979 0.03418 0.0788764 -0.0332829 0.0244878 0.0813299 -0.0344517 
0.0141365 0.0841168 -0.0352247 0.00311868 0.0870825 -0.0350355 -0.00816577 0.0901196 -0.0344615 
0.064933 0.0924881 -0.015504 0.0653614 0.0886746 -0.0149858 0.0647174 0.086102 -0.0153046 
0.0629793 0.0846609 -0.0163192 0.0603498 0.0841418 -0.0179007 0.0562707 0.0845943 -0.0197321 
0.0511918 0.0857169 -0.0217358 0.0443909 0.0876621 -0.0234462 0.03659 0.0900849 -0.0249862 
0.0271896 0.0930142 -0.0258331 0.0170136 0.096189 -0.026344 0.00582931 0.0992412 -0.0260907 
-0.00575827 0.102244 -0.0255317 0.0605475 0.0974622 -0.0101957 0.0621645 0.094528 -0.00968295 
0.0627121 0.0927057 -0.00987365 0.0620441 0.0920026 -0.0106311 0.0603855 0.0922114 -0.0118503 
0.0571497 0.0934113 -0.0132317 0.0528262 0.0952946 -0.0147249 0.0466162 0.0979601 -0.015918 
0.0393106 0.10108 -0.0169368 0.0301371 0.104543 -0.017361 0.0200578 0.108172 -0.017497 
0.00860253 0.111383 -0.0170575 -0.00340316 0.114428 -0.016388 0.0655505 0.0381828 -0.0651661 
0.0651107 0.0434885 -0.0701683 0.063561 0.0477599 -0.0762783 0.0605025 0.051211 -0.0835206 
0.0562147 0.0539937 -0.0916855 0.0496759 0.0562762 -0.100097 0.0415846 0.0582136 -0.108678 
0.0310682 0.0599314 -0.115422 0.0191435 0.0615216 -0.121097 0.0060963 0.0630737 -0.122669 
-0.00749521 0.0646073 -0.12225 -0.0198724 0.0660864 -0.117462 -0.0317638 0.0675436 -0.110926 
0.0713571 0.0380312 -0.0635628 0.0699693 0.0430833 -0.0684025 0.0675006 0.0469943 -0.0743465 
0.0637013 0.0500522 -0.0814094 0.0588179 0.052415 -0.0893838 0.0518558 0.0543049 -0.0976003 
0.0434602 0.0558687 -0.105984 0.0327668 0.0573177 -0.112589 0.0207391 0.0586999 -0.118161 
0.00763536 0.0602171 -0.119779 -0.00599009 0.0617996 -0.11948 -0.0184512 0.0634961 -0.114957 
-0.0304465 0.0652381 -0.108745 0.0771372 0.037991 -0.0618766 0.0747818 0.0427576 -0.0665433 
0.0713829 0.046283 -0.0723078 0.0668375 0.0489278 -0.079174 0.0613579 0.0508551 -0.0869381 
0.0539775 0.0523411 -0.0949376 0.0452862 0.0535227 -0.1031 0.0344298 0.0546977 -0.109547 
0.0223163 0.0558689 -0.115 0.00917524 0.0573511 -0.11666 -0.00446402 0.0589841 -0.116482 
-0.0169932 0.0609018 -0.112239 -0.0290783 0.0629334 -0.10637 0.082297 0.0405696 -0.0582444 
0.0785136 0.0442989 -0.062487 0.0739183 0.0468464 -0.0677546 0.0685002 0.0486115 -0.0740221 
0.0624117 0.0497391 -0.0811043 0.0547282 0.0505525 -0.0883716 0.0459445 0.0511492 -0.0957665 
0.0352563 0.0519307 -0.101614 0.0234623 0.0528195 -0.106563 0.0107346 0.0542677 -0.108165 
-0.00244584 0.0559872 -0.108144 -0.0146716 0.0582148 -0.104512 -0.0265156 0.0606458 -0.0994367 
0.0871795 0.0435594 -0.0544938 0.0820177 0.0461849 -0.0583048 0.0762731 0.0477284 -0.0630663 
0.0700217 0.0486098 -0.0687251 0.0633575 0.0489517 -0.0751149 0.0553991 0.0491153 -0.0816404 
0.046548 0.0491559 -0.0882596 0.03605 0.0495686 -0.0935014 0.0245957 0.0501973 -0.0979433 
0.0122984 0.0516188 -0.0994849 -0.000407738 0.0534247 -0.0996201 -0.0123195 0.0559447 -0.0966036 
-0.0239136 0.0587505 -0.0923264 0.0889429 0.0511752 -0.0494116 0.0829598 0.0519493 -0.0527054 
0.0765956 0.0521942 -0.0568586 0.0699544 0.0521466 -0.0617965 0.0630876 0.0518605 -0.0673737 
0.0551725 0.0516302 -0.0730506 0.0465344 0.0514384 -0.0787965 0.0364742 0.0517604 -0.0833671 
0.0255882 0.0523806 -0.0872553 0.0139127 0.0538573 -0.0887214 0.00185441 0.0557493 -0.0890131 
-0.00962364 0.0583643 -0.0866491 -0.0208696 0.0612684 -0.0832229 0.0900719 0.0590354 -0.0442546 
0.0834619 0.0579856 -0.047037 0.076628 0.0569673 -0.05059 0.0697088 0.056031 -0.0548188 
0.0627202 0.0551615 -0.0595982 0.0549041 0.0545821 -0.0644447 0.0465174 0.0542026 -0.0693376 
0.0369144 0.0544704 -0.0732535 0.0266053 0.055114 -0.0766022 0.0155477 0.0566615 -0.0779926 
0.00412721 0.0586473 -0.0784335 -0.00693094 0.0613455 -0.0767013 -0.0178441 0.0643286 -0.0740998 
0.0866544 0.0686466 -0.0385612 0.0808119 0.0659716 -0.0408741 0.0745811 0.0639424 -0.0438846 
0.0681846 0.062407 -0.0474889 0.0616532 0.0612738 -0.0515768 0.0543358 0.0606653 -0.0557229 
0.0464762 0.0604186 -0.059909 0.0374705 0.0608943 -0.0632881 0.0277993 0.0617894 -0.0661986 