# vtk DataFile Version 2.0
vtk output
ASCII
DATASET RECTILINEAR_GRID
DIMENSIONS 13 13 13
X_COORDINATES 13 float
-7.5 -7.29167 -7.08333 -6.875 -6.66667 -6.45833 -6.25 -6.04167 -5.83333 
-5.625 -5.41667 -5.20833 -5 
Y_COORDINATES 13 float
-5 -4.79167 -4.58333 -4.375 -4.16667 -3.95833 -3.75 -3.54167 -3.33333 
-3.125 -2.91667 -2.70833 -2.5 
Z_COORDINATES 13 float
-7.5 -7.29167 -7.08333 -6.875 -6.66667 -6.45833 -6.25 -6.04167 -5.83333 
-5.625 -5.41667 -5.20833 -5 
POINT_DATA 2197
VECTORS grad float
0.0219402 0.0952304 0.0568786 0.0204019 0.0936852 0.0558425 0.0190807 0.0920623 0.0547679 
0.018302 0.0902454 0.0535972 0.0177595 0.088352 0.0524556 0.017704 0.0863008 0.0513744 
0.0178805 0.0841494 0.0504266 0.0184565 0.081825 0.0497087 0.0192277 0.0793447 0.0492655 
0.0202821 0.0766383 0.0492206 0.0214448 0.0736887 0.0496225 0.0227407 0.0704406 0.0505728 
0.0239768 0.0668408 0.052156 0.0204341 0.0992014 0.0594268 0.0187273 0.0973417 0.0581592 
0.017249 0.0954197 0.0568389 0.0163422 0.0933416 0.055387 0.0156711 0.0912065 0.0539494 
0.0154866 0.088954 0.0525416 0.0155191 0.0866195 0.0512503 0.0159253 0.084144 0.0501597 
0.0164972 0.0815252 0.0493209 0.0173092 0.0786989 0.0488471 0.0181896 0.0756344 0.0487844 
0.019154 0.0722776 0.0492262 0.0200199 0.0685692 0.0502416 0.0185432 0.10346 0.0623959 
0.0167011 0.101233 0.0608459 0.0151021 0.0989689 0.0592286 0.0141111 0.096611 0.0574433 
0.0133553 0.0942267 0.0556577 0.013085 0.0917879 0.0538715 0.0130137 0.0892968 0.0521861 
0.0132854 0.0867159 0.0506742 0.0136884 0.0840153 0.0493942 0.014282 0.081141 0.0484504 
0.0149 0.0780427 0.0478877 0.015548 0.0746694 0.0477928 0.0160582 0.0709519 0.0482233 
0.0163118 0.107973 0.0657374 0.0143639 0.105332 0.0638599 0.0126764 0.102688 0.0619003 
0.01164 0.100034 0.0597354 0.0108383 0.0973935 0.0575556 0.0105204 0.0947817 0.0553454 
0.0103811 0.0921574 0.0532212 0.0105492 0.0895118 0.051245 0.0108104 0.0867792 0.0494834 
0.0112066 0.0839206 0.0480329 0.0115799 0.0808602 0.0469391 0.0119249 0.0775521 0.0462828 
0.0120921 0.0739135 0.0461131 0.0135048 0.112658 0.0697171 0.011529 0.109527 0.0674248 
0.0098344 0.106441 0.0650359 0.00884303 0.103468 0.0624058 0.00808407 0.100564 0.0597476 
0.00780447 0.0978049 0.0570315 0.00767696 0.0950876 0.0543897 0.00781141 0.0924428 0.0518757 
0.00799198 0.0897554 0.0495654 0.00823943 0.0870061 0.0475505 0.0084073 0.0840829 0.0458789 
0.00847748 0.0809463 0.0446286 0.00832374 0.0774908 0.0438439 0.0102663 0.117471 0.0741756 
0.00832084 0.113793 0.0714028 0.00668021 0.11022 0.0685195 0.00580158 0.10691 0.06536 
0.00515202 0.103738 0.06216 0.00497492 0.10085 0.0588767 0.00491917 0.09807 0.0556583 
0.00507244 0.0954752 0.0525514 0.00521827 0.0928907 0.0496421 0.00535332 0.090321 0.0470193 
0.00534532 0.0876097 0.044735 0.00516175 0.0847242 0.0428662 0.00470361 0.0815298 0.0414554 
0.00617881 0.122111 0.0796012 0.00441672 0.117795 0.0762003 0.00298496 0.113667 0.072677 
0.00237897 0.110009 0.0688479 0.00199375 0.106578 0.0649681 0.00206386 0.103615 0.0609841 
0.00221321 0.100844 0.0570602 0.00249901 0.0984051 0.05324 0.00270646 0.0960421 0.0496214 
0.0028003 0.0937897 0.046295 0.00266735 0.0914288 0.0433199 0.00225608 0.0889347 0.0407757 
0.00150224 0.0861271 0.0387077 0.00155368 0.126641 0.0856393 7.1821e-05 0.121631 0.0815168 
-0.00105296 0.116906 0.0772615 -0.00128504 0.112892 0.0726739 -0.00130779 0.109208 0.0680269 
-0.000898802 0.106203 0.0632575 -0.000459921 0.103487 0.0585467 3.04411e-05 0.10127 0.0539368 
0.000360534 0.0992037 0.049539 0.000458236 0.0973557 0.0454485 0.000232594 0.0954331 0.0417329 
-0.000389881 0.0934191 0.0384775 -0.0014339 0.091078 0.0357325 -0.00424817 0.130207 0.0931003 
-0.00518183 0.124444 0.0880206 -0.00573526 0.119089 0.0828015 -0.00533809 0.114754 0.077234 
-0.00475353 0.110876 0.0716005 -0.00378249 0.107943 0.0658306 -0.00285041 0.10542 0.0601235 
-0.00198545 0.103607 0.0545245 -0.00139434 0.102035 0.049162 -0.00120032 0.100814 0.0441426 
-0.00146614 0.0995484 0.0395478 -0.00229633 0.0982283 0.0354741 -0.00366321 0.0965359 0.0319828 
-0.0106752 0.13326 0.101317 -0.0109183 0.126713 0.095155 -0.0107599 0.120712 0.0888492 
-0.00959783 0.116073 0.0821843 -0.00827589 0.112034 0.0754477 -0.00662422 0.109232 0.0685631 
-0.00509075 0.106976 0.0617484 -0.00376085 0.105663 0.0550541 -0.00283521 0.104691 0.0486285 
-0.00249575 0.104215 0.0425927 -0.00277387 0.103723 0.0370448 -0.00380993 0.10321 0.0320959 
-0.00551702 0.102263 0.0278218 -0.0185218 0.133815 0.111479 -0.0176639 0.126555 0.103895 
-0.0163966 0.119996 0.096167 -0.0141057 0.115194 0.0880784 -0.0116967 0.111158 0.0799103 
-0.00904427 0.108704 0.0715785 -0.00661676 0.106966 0.0633274 -0.0045767 0.10646 0.0552154 
-0.00312437 0.106421 0.047422 -0.00252428 0.107058 0.0400904 -0.00277298 0.107699 0.0333481 
-0.0040634 0.108342 0.027329 -0.00622703 0.108431 0.0221368 -0.0269947 0.133268 0.122499 
-0.0248547 0.125324 0.113344 -0.0223032 0.118249 0.104045 -0.018723 0.113344 0.0943889 
-0.0150728 0.109385 0.0846445 -0.0112783 0.107375 0.0747186 -0.00782763 0.106264 0.0648861 
-0.00496921 0.106701 0.0552143 -0.00290542 0.107741 0.0459185 -0.00199386 0.109655 0.037168 
-0.00219476 0.111587 0.0291247 -0.00376093 0.113541 0.0219494 -0.00643241 0.114793 0.0157795 
-0.0367025 0.127712 0.135806 -0.0327772 0.119426 0.124675 -0.0284557 0.112164 0.113394 
-0.0231434 0.107461 0.101737 -0.0178136 0.103899 0.089967 -0.0124477 0.102693 0.077966 
-0.00757309 0.102614 0.0660657 -0.00354458 0.104477 0.0543392 -0.000601002 0.107119 0.0430617 
0.000769388 0.11089 0.0324354 0.000633173 0.114683 0.0226854 -0.00135206 0.118503 0.0140106 
-0.00479748 0.121377 0.00661855 0.0209832 0.0974944 0.0540369 0.0193195 0.0957391 0.0529127 
0.0179026 0.0938915 0.051735 0.0171024 0.0918131 0.0504234 0.0165827 0.0896425 0.0491291 
0.0166414 0.087282 0.0478703 0.0169916 0.0848031 0.0467423 0.0178437 0.0821202 0.0458395 
0.0189642 0.0792566 0.0452253 0.0204736 0.0761312 0.0450298 0.0221725 0.072723 0.0453208 
0.0241039 0.0689676 0.0462091 0.026051 0.0647929 0.0478071 0.0192797 0.101797 0.0563021 
0.0174186 0.0996902 0.0549724 0.0158163 0.0975051 0.0535732 0.0148615 0.095125 0.0520005 
0.0141871 0.0926717 0.0504282 0.0140908 0.0900675 0.0488566 0.0142698 0.0873633 0.0473963 
0.014923 0.084487 0.046128 0.0158108 0.0814441 0.0451222 0.0170387 0.0781595 0.044497 
0.0184073 0.0746005 0.0443167 0.0199486 0.0707045 0.0446825 0.0214521 0.0663965 0.0456868 
0.0171454 0.106462 0.0589385 0.0151183 0.103938 0.0573612 0.0133658 0.10136 0.0556977 
0.0122996 0.0986487 0.0538187 0.0115138 0.0958944 0.0519227 0.0113063 0.0930517 0.0499919 
0.0113558 0.0901398 0.0481538 0.0118477 0.0871086 0.0464754 0.012537 0.0839369 0.045036 
0.0135128 0.0805618 0.0439432 0.0145784 0.0769323 0.0432597 0.0157544 0.0729906 0.0430784 
0.016842 0.0686553 0.0434767 0.0146298 0.111446 0.0619034 0.0124649 0.108448 0.0600413 
0.010593 0.105429 0.0580754 0.00945364 0.10236 0.0558501 0.00859492 0.0992882 0.0535902 
0.00831512 0.0962118 0.0512591 0.00827176 0.0931076 0.0490026 0.0086356 0.0899555 0.0468748 
0.00915683 0.0867 0.0449649 0.00990626 0.0832949 0.0433709 0.0106931 0.079666 0.0421559 
0.0115259 0.0757626 0.0414059 0.0122218 0.0714938 0.0411871 0.011455 0.116724 0.0654407 
0.00922992 0.113153 0.0632192 0.00732011 0.109611 0.0608757 0.00619848 0.106141 0.0582274 
0.00535691 0.102725 0.0555273 0.00509296 0.0994217 0.05272 0.00504046 0.0961475 0.0499716 
0.00535216 0.0929234 0.0473248 0.0057744 0.0896465 0.0448807 0.00635695 0.0862927 0.0427307 
0.00691796 0.0827541 0.040941 0.00745256 0.0789889 0.0395935 0.0077991 0.0748874 0.0387478 
0.00778579 0.122221 0.0694074 0.00555871 0.118004 0.0667704 0.00367205 0.113877 0.0639929 
0.00263642 0.109974 0.0608643 0.00187955 0.106194 0.0576666 0.00169759 0.102669 0.0543262 
0.00169873 0.0992413 0.0510307 0.00201519 0.0959822 0.0478127 0.00239032 0.0927304 0.0447868 
0.00285054 0.089489 0.0420396 0.00322545 0.086108 0.0396428 0.00349567 0.0825558 0.037676 
0.00352452 0.0786974 0.0361963 0.0031177 0.127731 0.074276 0.00104526 0.122744 0.0710929 
-0.000660042 0.117931 0.0677509 -0.0014475 0.113551 0.0640115 -0.00196181 0.109385 0.060186 
-0.00191278 0.105658 0.0561833 -0.0017184 0.102119 0.0522152 -0.00127373 0.0988998 0.048307 
-0.000836627 0.0957634 0.0445904 -0.000410489 0.0927465 0.0411515 -0.000150225 0.0896398 0.038071 
-9.35311e-05 0.0864228 0.0354304 -0.000345737 0.0829195 0.033289 -0.00218298 0.133249 0.0797157 
-0.00400159 0.127413 0.075904 -0.00542534 0.12185 0.0719148 -0.00586192 0.116965 0.0674818 
-0.0060337 0.112398 0.0629462 -0.0056593 0.108485 0.0581992 -0.00518328 0.104859 0.0534791 
-0.00453221 0.101728 0.0488054 -0.00396405 0.0987643 0.044329 -0.0035161 0.0960429 0.0401385 
-0.00332523 0.0932843 0.0363259 -0.00344985 0.0904798 0.032977 -0.00395991 0.0874025 0.0301564 
-0.00891618 0.138051 0.0865629 -0.0102008 0.131262 0.0819064 -0.0110689 0.12487 0.077054 
-0.0108958 0.11947 0.0717117 -0.0104762 0.114515 0.0662497 -0.00954836 0.110479 0.0605408 
-0.00857894 0.106856 0.054856 -0.00753787 0.103946 0.0492126 -0.00668189 0.101306 0.0437871 
-0.0060943 0.0990595 0.0386774 -0.00588986 0.0968288 0.0339921 -0.00615565 0.094618 0.0298278 
-0.00691602 0.0921237 0.0262602 -0.0164104 0.142474 0.0941579 -0.0170122 0.134675 0.0885418 
-0.0171791 0.127413 0.0827114 -0.0162586 0.121492 0.0763452 -0.0151155 0.116157 0.0698418 
-0.0135131 0.112031 0.0630555 -0.0119378 0.108459 0.0562929 -0.0104092 0.10584 0.0495714 
-0.00918213 0.103605 0.0430961 -0.00839231 0.101927 0.0369781 -0.00813024 0.10032 0.0313455 
-0.00851587 0.0987993 0.026309 -0.00952253 0.0969714 0.0219583 -0.0257201 0.144639 0.10384 
-0.0252038 0.135859 0.0969387 -0.0242547 0.127772 0.0898017 -0.0222234 0.121414 0.0820752 
-0.0200069 0.115806 0.0741887 -0.0174085 0.111742 0.0659719 -0.0149278 0.108403 0.0577837 
-0.0126498 0.106312 0.0496445 -0.0108349 0.104745 0.0418015 -0.00969119 0.103939 0.0343878 
-0.00928453 0.103254 0.027562 -0.0097824 0.102719 0.0214576 -0.0110896 0.101809 0.0161894 
-0.0358307 0.145809 0.114443 -0.0340044 0.136061 0.106113 -0.0317563 0.127167 0.0975242 
-0.0284538 0.120411 0.088289 -0.0250095 0.114576 0.0788685 -0.0212732 0.11064 0.0690657 
-0.0177549 0.107614 0.0592982 -0.0146122 0.106156 0.0495917 -0.0121137 0.105374 0.0402405 
-0.0105493 0.105572 0.0314045 -0.00995966 0.105942 0.0232768 -0.0105664 0.106524 0.0160183 
-0.012198 0.106642 0.00977327 -0.0476792 0.141996 0.12782 -0.0440167 0.131622 0.117647 
-0.0399736 0.122243 0.107172 -0.0349789 0.115347 0.0959429 -0.0298872 0.109554 0.0844852 
-0.0245957 0.106035 0.0725563 -0.0196411 0.103652 0.0606728 -0.0152669 0.103225 0.0488675 
-0.0117882 0.103665 0.0375043 -0.00960813 0.105361 0.026782 -0.00875434 0.107272 0.0169474 
-0.0095283 0.109447 0.00820236 -0.0116517 0.110993 0.000745519 0.0199858 0.0995898 0.0511434 
0.0181777 0.0976417 0.0499213 0.0166468 0.0955857 0.048628 0.0158085 0.0932596 0.0471568 
0.015297 0.0908247 0.0456878 0.0154597 0.0881653 0.0442235 0.0159771 0.0853683 0.042884 
0.0171054 0.0823342 0.0417593 0.0185808 0.0790933 0.0409338 0.0205592 0.0755526 0.0405419 
0.0228162 0.0716866 0.0406722 0.025415 0.0674213 0.041443 0.0281164 0.0626624 0.0429948 
0.0181049 0.104195 0.0531147 0.0160688 0.101863 0.0517166 0.0143227 0.0994362 0.0502298 
0.0133014 0.0967727 0.0485209 0.0126071 0.0940184 0.0467954 0.0125871 0.0910769 0.0450357 
0.0129044 0.088016 0.0433792 0.0138028 0.0847494 0.0419006 0.01501 0.081291 0.0406922 
0.0166651 0.0775544 0.0398756 0.0185401 0.073504 0.0395341 0.0206849 0.0690684 0.0397758 
0.0228618 0.0641542 0.0407164 0.0157541 0.109228 0.0553984 0.0135195 0.106437 0.0537928 
0.0115913 0.103574 0.0520794 0.010429 0.100533 0.0500963 0.00959443 0.0974305 0.0480769 
0.00943562 0.0942029 0.0459822 0.00959525 0.0908871 0.0439696 0.0103033 0.0874193 0.042098 
0.01128 0.0837886 0.0404698 0.0126462 0.0799214 0.0391947 0.0141738 0.0757665 0.0383539 
0.0158996 0.0712583 0.0380461 0.0175934 0.0663015 0.0383681 0.0129877 0.114641 0.0579585 
0.0105806 0.111323 0.0561174 0.00849956 0.107966 0.0541482 0.00723341 0.104511 0.0518587 
0.00629619 0.101036 0.0495121 0.0060374 0.0975186 0.0470477 0.00607678 0.0939557 0.044644 
0.00662966 0.0903145 0.0423449 0.00740903 0.0865514 0.0402645 0.0085168 0.0826114 0.038501 
0.0097278 0.0784226 0.0371364 0.0110655 0.0739285 0.0362611 0.0123129 0.0690287 0.0359581 
0.00948982 0.120463 0.0610065 0.00698646 0.1165 0.0588712 0.00483271 0.112546 0.0565858 
0.00355297 0.108616 0.053925 0.00260327 0.104723 0.0511855 0.00233427 0.100904 0.0482837 
0.00234002 0.0970985 0.0454229 0.00281895 0.0933163 0.0426326 0.00347764 0.0894681 0.0400417 
0.004397 0.0855243 0.0377398 0.00535784 0.0813816 0.0358126 0.00636959 0.0769948 0.0343454 
0.00723367 0.0722497 0.033413 0.00544335 0.126591 0.0644204 0.00290078 0.121894 0.0619468 
0.000734504 0.117268 0.0592998 -0.00049107 0.112817 0.0562192 -0.00138565 0.108471 0.0530376 
-0.00159754 0.104342 0.0496477 -0.00156045 0.100297 0.0462802 -0.00109455 0.096398 0.042951 
-0.000499049 0.0925003 0.0398059 0.000284384 0.0886043 0.0369279 0.00104492 0.0845676 0.0344093 
0.00177735 0.0803583 0.0323317 0.00230547 0.0758409 0.0307667 0.000266197 0.13292 0.068637 
-0.00215829 0.127335 0.0657177 -0.00417846 0.121903 0.0625992 -0.00518788 0.116855 0.0589825 
-0.00586871 0.112001 0.0552409 -0.00587182 0.10755 0.0512419 -0.00565882 0.103275 0.0472489 
-0.0050736 0.0993044 0.0432666 -0.00442009 0.0954187 0.0394627 -0.00366755 0.0916567 0.0359174 
-0.00301545 0.0878202 0.0327343 -0.00248659 0.0838921 0.0299955 -0.00222952 0.0797005 0.0277745 
-0.00562704 0.139377 0.0733621 -0.00783382 0.132803 0.069929 -0.00960743 0.126481 0.0662692 
-0.0102981 0.120788 0.0620428 -0.0106647 0.115393 0.0576666 -0.010363 0.110613 0.0529817 
-0.00988251 0.106115 0.0482884 -0.00909415 0.1021 0.0435806 -0.00830587 0.0982649 0.0390514 
-0.00751772 0.0946916 0.0347812 -0.00691585 0.0911148 0.0308872 -0.0065426 0.0875339 0.027455 
-0.00651547 0.08373 0.0245634 -0.0131818 0.145392 0.0794253 -0.0148848 0.137681 0.0752921 
-0.0161339 0.130345 0.0709003 -0.0162479 0.123948 0.0658617 -0.0160513 0.117977 0.0606447 
-0.015214 0.11288 0.0550596 -0.0142478 0.108195 0.0494552 -0.0130596 0.104218 0.0438179 
-0.0119617 0.100538 0.0383744 -0.0109945 0.0972877 0.0332123 -0.0103294 0.0941115 0.0284684 
-0.0100347 0.0910261 0.0242377 -0.0101897 0.0877418 0.0206105 -0.0216191 0.151173 0.0861994 
-0.0226665 0.142244 0.0812672 -0.0232433 0.133829 0.0760419 -0.0226438 0.126698 0.0700836 
-0.0217517 0.12013 0.063916 -0.0202562 0.114724 0.057317 -0.0186883 0.109873 0.0506899 
-0.0169959 0.105977 0.0440144 -0.0154953 0.102506 0.0375564 -0.014273 0.0996506 0.0314136 
-0.0134842 0.0969498 0.0257458 -0.0132273 0.0944389 0.020661 -0.0135389 0.091744 0.0162635 
-0.0322332 0.155015 0.0951293 -0.0321772 0.144852 0.0891034 -0.0316603 0.135352 0.082738 
-0.0299912 0.127509 0.0755239 -0.0280591 0.120385 0.0680602 -0.0255846 0.114746 0.0600818 
-0.0231093 0.109837 0.0520721 -0.0206329 0.106184 0.0440087 -0.0184867 0.103114 0.0362104 
-0.0168194 0.100888 0.0287967 -0.0157734 0.0989024 0.0219585 -0.01549 0.0972112 0.0158268 
-0.0159506 0.095319 0.0105275 -0.0438076 0.158 0.10501 -0.0424506 0.146596 0.0977606 
-0.0406541 0.136009 0.0901199 -0.0377585 0.127464 0.0815017 -0.0346344 0.119803 0.0725894 
-0.0310393 0.113964 0.0630705 -0.0275217 0.109044 0.0535196 -0.0241379 0.105706 0.0439137 
-0.0212388 0.103122 0.0346315 -0.0190426 0.101629 0.0258188 -0.0176807 0.100464 0.0177016 
-0.0173425 0.0997011 0.0104378 -0.0179487 0.0987054 0.00417859 -0.0575906 0.15619 0.118089 
-0.0544054 0.143878 0.109211 -0.0508416 0.132498 0.0998556 -0.0463311 0.123445 0.0893064 
-0.0416207 0.115441 0.0783976 -0.0364979 0.1096 0.0667467 -0.0315374 0.104909 0.0550741 
-0.0268566 0.102196 0.0433641 -0.0228723 0.100447 0.0320754 -0.0198981 0.100096 0.0213978 
-0.0180702 0.100158 0.0116015 -0.0176493 0.100729 0.00288686 -0.0184711 0.100979 -0.00455576 
0.0188874 0.101264 0.0481202 0.0168875 0.0991662 0.0467756 0.0151967 0.0969425 0.0453358 
0.0142786 0.0944034 0.0436579 0.013739 0.091736 0.0419598 0.0139799 0.088804 0.0402199 
0.0146484 0.0857123 0.0385907 0.0160531 0.0823454 0.0371518 0.0178977 0.0787418 0.0360137 
0.0203801 0.0747951 0.0353114 0.02325 0.0704734 0.0351558 0.0265957 0.0656916 0.035671 
0.0301594 0.0603254 0.0370237 0.0168788 0.106095 0.0497706 0.0146164 0.103596 0.0482885 
0.0126765 0.100982 0.0466917 0.0115426 0.0980811 0.0448082 0.0107876 0.0950688 0.0428839 
0.0108139 0.091826 0.0408753 0.0112489 0.0884407 0.0389543 0.0123879 0.0848102 0.0371842 
0.0139234 0.0809581 0.0356841 0.0160337 0.076785 0.0345757 0.0184604 0.0722512 0.0339639 
0.0212755 0.0672747 0.0339616 0.0242148 0.0617376 0.0347067 0.0143791 0.111406 0.0516516 
0.0118803 0.108421 0.050015 0.00972107 0.105343 0.0482424 0.00841068 0.102032 0.0461295 
0.00748056 0.0986381 0.0439537 0.00733473 0.0950722 0.0416477 0.00757824 0.0913948 0.0394058 
0.00849228 0.0875253 0.0372743 0.00975869 0.083465 0.0353837 0.0115361 0.079128 0.0338425 
0.0135616 0.0744621 0.0327533 0.0158918 0.0693924 0.0322188 0.018264 0.0638044 0.0323547 
0.0114451 0.11714 0.0537365 0.0087329 0.113595 0.0519305 0.00638073 0.109988 0.0499654 
0.00492851 0.106225 0.0476022 0.00385897 0.102417 0.0451524 0.00357869 0.0985169 0.0425237 
0.00366771 0.0945485 0.0399351 0.00439279 0.090462 0.0374156 0.00542559 0.086229 0.0351091 
0.00690462 0.0817835 0.0331116 0.00856619 0.0770562 0.0315262 0.0104518 0.0719828 0.0304463 
0.0123075 0.0664503 0.0299715 0.00773612 0.123384 0.0561776 0.00488195 0.119147 0.0541674 
0.00241254 0.114894 0.0519717 0.000905035 0.110599 0.0493122 -0.000216603 0.106314 0.0465401 
-0.000542387 0.10205 0.0435356 -0.000520326 0.0977775 0.0405474 0.000100803 0.0934897 0.0375872 
0.000982894 0.0891163 0.0348167 0.00224338 0.0846185 0.0323212 0.00362071 0.0798996 0.0302083 
0.00514147 0.0749093 0.028565 0.00656628 0.069526 0.0274813 0.00344602 0.13001 0.0588861 
0.000503357 0.124982 0.0566454 -0.00202651 0.119994 0.0541906 -0.00352442 0.115108 0.0512002 
-0.00463266 0.110299 0.0480696 -0.00493722 0.105649 0.0446494 -0.00491649 0.101063 0.0412218 
-0.00433553 0.0965856 0.0377816 -0.003542 0.0920959 0.034511 -0.00244022 0.0875882 0.0314861 
-0.00128729 0.0829301 0.0288224 -7.16011e-05 0.0780877 0.0266021 0.000986527 0.072924 0.0249109 
-0.00206134 0.137033 0.0622137 -0.00494206 0.13103 0.0596729 -0.00738045 0.125147 0.0568833 
-0.00871307 0.119564 0.0534719 -0.00965396 0.114144 0.0498881 -0.00978693 0.109063 0.045949 
-0.00962126 0.104138 0.0419794 -0.00894129 0.0994835 0.0379576 -0.0081045 0.0949087 0.0340932 
-0.00704033 0.0904501 0.0304571 -0.00599981 0.0859237 0.0271778 -0.00498832 0.0813142 0.0243364 
-0.00420284 0.0764531 0.0220206 -0.00833962 0.144306 0.0659335 -0.0110631 0.137213 0.0630483 
-0.0133138 0.130333 0.0598761 -0.0143825 0.123985 0.0559865 -0.0150586 0.1179 0.0518898 
-0.0149247 0.112359 0.0473662 -0.0145215 0.107081 0.0427897 -0.0136543 0.102256 0.0381219 
-0.0126908 0.0976158 0.0336045 -0.0115876 0.0932437 0.0293053 -0.0105885 0.0888939 0.0253693 
-0.00971734 0.0845712 0.021879 -0.00914495 0.0800652 0.0189278 -0.0164413 0.151475 0.070787 
-0.0187315 0.143101 0.0674273 -0.0205271 0.135056 0.0637308 -0.0210864 0.127832 0.0591924 
-0.0212578 0.120992 0.054404 -0.0206291 0.114945 0.0490998 -0.0197675 0.109293 0.0437215 
-0.0185048 0.104324 0.0382156 -0.0172221 0.0996697 0.0328674 -0.0159105 0.0954727 0.0277476 
-0.0148084 0.0914002 0.0230245 -0.0139633 0.0874802 0.018788 -0.0135155 0.0834354 0.015143 
-0.0255116 0.158588 0.0762426 -0.0272218 0.148832 0.0723393 -0.0284203 0.139532 0.0680434 
-0.0283397 0.131374 0.0627657 -0.027879 0.123731 0.0571904 -0.0266345 0.117153 0.0510013 
-0.0251973 0.111117 0.0447178 -0.0234282 0.106017 0.0382719 -0.0217242 0.101376 0.0319982 
-0.0201143 0.0974017 0.0259743 -0.0188323 0.09366 0.0203948 -0.0179526 0.0902044 0.0153606 
-0.0175825 0.0866771 0.0109904 -0.0370335 0.164269 0.0837401 -0.0377341 0.153062 0.079071 
-0.0379344 0.142441 0.0739284 -0.0368842 0.133288 0.0676019 -0.0354664 0.124797 0.0609145 
-0.0332904 0.117668 0.0534826 -0.0309673 0.111264 0.045941 -0.0283907 0.10611 0.0382104 
-0.0259918 0.101596 0.0306928 -0.0238507 0.0980115 0.0234841 -0.0222056 0.0947826 0.0168118 
-0.0211693 0.0919905 0.0107977 -0.0208079 0.0891595 0.00557922 -0.0496368 0.169317 0.0921384 
-0.0491383 0.156629 0.0866054 -0.0481636 0.144659 0.0805071 -0.0459983 0.134485 0.0729954 
-0.0434799 0.125123 0.0650523 -0.0402333 0.117436 0.0562197 -0.0368874 0.110671 0.0472642 
-0.0333703 0.105497 0.038097 -0.0301561 0.10116 0.029195 -0.0273809 0.0980392 0.0206777 
-0.0252919 0.0954033 0.0128082 -0.024045 0.0933629 0.00573386 -0.023662 0.0913069 -0.000387273 
-0.0648389 0.170164 0.103991 -0.0626672 0.156284 0.0972547 -0.0600847 0.143192 0.089803 
-0.0564756 0.132069 0.0805636 -0.0525042 0.121906 0.0707955 -0.0477859 0.113724 0.0599373 
-0.0430046 0.106714 0.048961 -0.0381149 0.101722 0.0377814 -0.0336987 0.0978186 0.0269683 
-0.0299691 0.0954921 0.0166868 -0.0272069 0.0937911 0.00723562 -0.0256321 0.0928578 -0.00119675 
-0.0252035 0.0918904 -0.00842772 0.0177185 0.10274 0.0451627 0.0154937 0.100517 0.0436727 
0.0136106 0.09815 0.0420595 0.0125817 0.0954188 0.040138 0.0119854 0.0925389 0.0381695 
0.0122814 0.0893524 0.036104 0.0130819 0.0859835 0.0341305 0.0147515 0.0823007 0.0323152 
0.0169598 0.0783511 0.0307974 0.0199493 0.0740149 0.029711 0.0234426 0.0692537 0.0291898 
0.0275544 0.0639709 0.0293621 0.0320089 0.0580103 0.030417 0.0156109 0.107752 0.0465046 
0.0130872 0.105118 0.0449164 0.0109191 0.102349 0.0431837 0.00963993 0.0992402 0.0410899 
0.00879416 0.0959975 0.0389269 0.00884229 0.0924787 0.0366214 0.00937517 0.0887936 0.0343839 
0.0107429 0.0848222 0.0322636 0.0126006 0.080599 0.0304098 0.0151688 0.0760109 0.0289422 
0.0181567 0.0710143 0.0279887 0.0216595 0.0655163 0.027666 0.0253858 0.0593724 0.0281312 
0.0130024 0.113276 0.0479891 0.010202 0.110143 0.0463016 0.00777492 0.106893 0.044446 
0.00628133 0.103352 0.0421702 0.00522351 0.0997031 0.0398011 0.00506446 0.0958327 0.0372392 
0.00537042 0.0918261 0.0347204 0.00647723 0.0875851 0.0322757 0.00802613 0.0831241 0.0300668 
0.010216 0.0783444 0.0281999 0.012747 0.0731928 0.0268 0.0156964 0.0675847 0.0259733 
0.0187676 0.0613852 0.0258524 0.00995084 0.119255 0.0495998 0.0068932 0.115543 0.0478121 
0.00423024 0.111743 0.0458305 0.00255398 0.10772 0.0433642 0.00131722 0.103627 0.0407784 
0.000986934 0.0993881 0.037946 0.00110204 0.0950554 0.0351305 0.00198421 0.0905615 0.032344 
0.00326123 0.0858945 0.0297633 0.0051108 0.0809766 0.0274809 0.00722785 0.075741 0.0256223 
0.00967319 0.0701156 0.0242838 0.0121536 0.0639735 0.0235798 0.00610061 0.125824 0.051418 
0.0028506 0.121391 0.0495211 2.12272e-05 0.11691 0.0474 -0.00175659 0.112314 0.0447184 
-0.00308933 0.107698 0.0418874 -0.00350414 0.103044 0.0387482 -0.00349286 0.0983553 0.0355987 
-0.00274778 0.0936084 0.0324312 -0.00165472 0.0887532 0.0294425 -5.70973e-05 0.083741 0.026713 
0.001738 0.0784817 0.0243731 0.00377546 0.0729192 0.0225114 0.00577251 0.0669245 0.0212317 
0.00165137 0.132837 0.0533918 -0.00174236 0.127573 0.051379 -0.00468603 0.122316 0.0491083 
-0.00650455 0.117075 0.0461927 -0.00787108 0.111879 0.0430951 -0.00830536 0.106774 0.039622 
-0.00833264 0.101708 0.0361105 -0.00765896 0.0967081 0.0325327 -0.00668394 0.091678 0.0291089 
-0.00527196 0.0866046 0.0259084 -0.00372988 0.0813667 0.0230702 -0.00202812 0.0759272 0.0206767 
-0.000433848 0.0701474 0.018827 -0.00406769 0.140421 0.0557643 -0.00746625 0.134125 0.0536077 
-0.0103834 0.127907 0.0511502 -0.0120969 0.121887 0.0479406 -0.0133513 0.115994 0.0445093 
-0.0136585 0.110362 0.0406209 -0.0135787 0.104861 0.0366645 -0.0128323 0.0995874 0.0325908 
-0.0118346 0.0943838 0.0286527 -0.0104726 0.0892817 0.024911 -0.00905287 0.0841133 0.0215197 
-0.00756216 0.0788633 0.0185583 -0.00624866 0.0733667 0.0161279 -0.010591 0.148367 0.0583894 
-0.0139064 0.140909 0.0560712 -0.0167078 0.133615 0.0534034 -0.0182241 0.126731 0.0498618 
-0.0192739 0.120067 0.0460544 -0.0193612 0.113858 0.0416991 -0.019082 0.107887 0.0372452 
-0.0181715 0.102327 0.0326216 -0.0170621 0.0969508 0.0281189 -0.0156643 0.0918408 0.0237915 
-0.0142841 0.086772 0.0198123 -0.0129255 0.0817537 0.0162602 -0.0118155 0.0765836 0.0132423 
-0.0190423 0.156545 0.0618743 -0.0220196 0.147702 0.0593283 -0.0244585 0.139125 0.0563656 
-0.0255517 0.131215 0.0523608 -0.0261724 0.123637 0.0480333 -0.0258188 0.116744 0.0430401 
-0.0251202 0.110225 0.0379165 -0.0238276 0.104348 0.0325687 -0.0223984 0.0987986 0.0273396 
-0.0207711 0.0937237 0.0222828 -0.0192565 0.0888161 0.0175971 -0.0178802 0.0841136 0.0133669 
-0.0168464 0.0793509 0.00971064 -0.0285179 0.164846 0.065816 -0.0310216 0.154499 0.063007 
-0.0329671 0.14453 0.0597043 -0.0335169 0.135507 0.0551669 -0.0335894 0.126939 0.0502427 
-0.0326773 0.119307 0.0445207 -0.0314425 0.112197 0.038636 -0.029652 0.105987 0.0324714 
-0.0277925 0.100264 0.02643 -0.025833 0.0952474 0.0205673 -0.0240916 0.0905335 0.0151123 
-0.0226179 0.0861916 0.0101575 -0.0215926 0.0818794 0.00583578 -0.0406301 0.172286 0.0715665 
-0.0422731 0.160316 0.0683588 -0.0433655 0.148829 0.0645422 -0.0430814 0.138545 0.0592028 
-0.0423101 0.128846 0.0533901 -0.040534 0.120353 0.0466013 -0.0384516 0.112571 0.0396208 
-0.0358413 0.106016 0.0323102 -0.0332486 0.100153 0.0251536 -0.0306812 0.0952942 0.0182201 
-0.0284811 0.0908991 0.0117742 -0.0267319 0.0870728 0.00592662 -0.0255873 0.0833566 0.000826682 
-0.0539055 0.179345 0.078115 -0.0545171 0.165702 0.0744488 -0.0545978 0.15264 0.0700414 
-0.0533514 0.141029 0.0637813 -0.051606 0.130138 0.0569514 -0.0488312 0.120729 0.0489466 
-0.0457636 0.11224 0.0407225 -0.0421917 0.105333 0.0321209 -0.038732 0.0993454 0.0237153 
-0.0354352 0.0946895 0.0155943 -0.0326742 0.0906683 0.0080598 -0.0305708 0.0874261 0.00124505 
-0.0292504 0.0843701 -0.00468281 -0.0700524 0.183017 0.0881906 -0.0692584 0.167933 0.0838121 
-0.0679889 0.153439 0.07848 -0.0655307 0.14042 0.0707636 -0.0625144 0.128251 0.0623479 
-0.0583473 0.117833 0.05249 -0.0538691 0.108607 0.042408 -0.0488553 0.101434 0.0319401 
-0.0440832 0.0954739 0.021767 -0.0396615 0.0912742 0.0120212 -0.0360293 0.0879051 0.00303405 
-0.0333661 0.0855553 -0.00502209 -0.0317558 0.08344 -0.0119674 0.016404 0.103807 0.0423407 
0.0138861 0.101512 0.0406578 0.0117438 0.0990494 0.0388155 0.0105403 0.0961694 0.0365747 
0.00982871 0.0931183 0.0342511 0.0101314 0.0897144 0.0317565 0.0110249 0.0861047 0.029326 
0.0129358 0.0821405 0.0270058 0.0154965 0.0778794 0.0249703 0.0189996 0.0731878 0.0233478 
0.0231376 0.0680204 0.0222964 0.0280551 0.0622689 0.0219459 0.0334592 0.0557406 0.0224995 
0.0142566 0.108904 0.0433995 0.0113995 0.106206 0.0416597 0.00893249 0.103348 0.0397376 
0.00744057 0.100091 0.03736 0.00644219 0.0966755 0.0348765 0.00646171 0.0929328 0.0321747 
0.00705145 0.0889983 0.0295134 0.00862323 0.0847336 0.0269221 0.0107909 0.0801857 0.0245862 
0.0138226 0.0752272 0.0226208 0.0173906 0.0698102 0.0211782 0.021617 0.0638306 0.0203772 
0.0261811 0.0571134 0.0203885 0.011622 0.114514 0.0445006 0.00844274 0.111325 0.042721 
0.00567212 0.107993 0.0407335 0.003923 0.104301 0.0382263 0.00267112 0.100474 0.0355878 
0.00244482 0.0963686 0.0326783 0.00276905 0.0920997 0.0297841 0.00404145 0.0875493 0.0269161 
0.00585787 0.0827474 0.0242736 0.00846314 0.0775808 0.0219581 0.0115148 0.0719958 0.0201193 
0.0151143 0.0658971 0.0188654 0.0189267 0.0591266 0.0183419 0.00855643 0.12058 0.0456393 
0.00507007 0.116821 0.0438348 0.00201448 0.112943 0.0417945 3.58135e-05 0.108766 0.0391644 
-0.00144013 0.104486 0.0363752 -0.0018792 0.0999969 0.0332576 -0.00178665 0.0953851 0.0301283 
-0.000778499 0.0905618 0.0269789 0.000723718 0.0855349 0.0240244 0.00294233 0.0802126 0.0213524 
0.00552499 0.0745316 0.0191129 0.00855444 0.0684103 0.017404 0.0116933 0.0617061 0.0163523 
0.00470885 0.127274 0.046801 0.000970153 0.1228 0.0449931 -0.00231058 0.118243 0.0429155 
-0.00444642 0.113477 0.0401636 -0.00607107 0.108656 0.0372198 -0.00664139 0.103723 0.0338801 
-0.00669678 0.0987247 0.0304991 -0.00586537 0.0936141 0.0270471 -0.00458697 0.0883669 0.0237606 
-0.00266045 0.0829215 0.0207138 -0.000444999 0.0771958 0.0180618 0.00212505 0.0711261 0.015894 
0.00471808 0.0645747 0.0143262 0.000274756 0.13444 0.04798 -0.00367518 0.129142 0.0461847 
-0.00713619 0.123805 0.0440814 -0.00937494 0.118374 0.0412086 -0.0110918 0.112945 0.0381073 
-0.0117322 0.107523 0.0345349 -0.0118727 0.102105 0.0308898 -0.0111524 0.0966963 0.0271195 
-0.0100301 0.0912322 0.0234858 -0.0083247 0.0856881 0.0200505 -0.00640012 0.0799562 0.0169771 
-0.0042065 0.0739937 0.0143477 -0.00206342 0.0676601 0.0122728 -0.00541161 0.142314 0.0492611 
-0.00945506 0.13598 0.0475005 -0.0129757 0.129669 0.0453815 -0.0151893 0.123415 0.0423665 
-0.0168673 0.117238 0.0390768 -0.0174403 0.111218 0.0352205 -0.0175257 0.105294 0.0312559 
-0.0167712 0.0995361 0.0271049 -0.0156588 0.093828 0.0230656 -0.0140277 0.0881924 0.0191881 
-0.0122476 0.0824802 0.015652 -0.0102847 0.0766739 0.0125349 -0.00844401 0.0706121 0.00994887 
-0.0118911 0.150634 0.0506068 -0.0159535 0.143132 0.048895 -0.0194573 0.135724 0.0467665 
-0.0215648 0.128548 0.0435959 -0.0231208 0.121533 0.0400981 -0.0235395 0.114847 0.0359254 
-0.0234808 0.108362 0.0316064 -0.0226 0.102222 0.0270354 -0.0214052 0.0962531 0.0225532 
-0.0197552 0.0905306 0.0181997 -0.0180269 0.0848545 0.0141748 -0.0162025 0.0792355 0.0105533 
-0.0145707 0.0734797 0.00745365 -0.0202851 0.159525 0.0523957 -0.0241557 0.150612 0.0507465 
-0.0274375 0.141873 0.0485964 -0.0292473 0.133566 0.0451944 -0.0304852 0.125516 0.0413946 
-0.0305434 0.117998 0.0367744 -0.0301283 0.110813 0.0319649 -0.0288981 0.104205 0.0268296 
-0.0274012 0.0979216 0.0217693 -0.0255177 0.0921106 0.0168178 -0.0236412 0.0864942 0.0122041 
-0.0217732 0.0811165 0.0080049 -0.0201875 0.0757239 0.00435094 -0.0296963 0.168718 0.0544202 
-0.0332632 0.158266 0.0528407 -0.0362139 0.148071 0.0506629 -0.0376243 0.138522 0.046989 