# vtk DataFile Version 2.0
vtk output
ASCII
DATASET RECTILINEAR_GRID
DIMENSIONS 13 13 13
X_COORDINATES 13 float
0 0.208333 0.416667 0.625 0.833333 1.04167 1.25 1.45833 1.66667 
1.875 2.08333 2.29167 2.5 
Y_COORDINATES 13 float
-10 -9.79167 -9.58333 -9.375 -9.16667 -8.95833 -8.75 -8.54167 -8.33333 
-8.125 -7.91667 -7.70833 -7.5 
Z_COORDINATES 13 float
0 0.208333 0.416667 0.625 0.833333 1.04167 1.25 1.45833 1.66667 
1.875 2.08333 2.29167 2.5 
POINT_DATA 2197
VECTORS grad float
0.0631606 0.0531235 -0.0884621 0.0668815 0.0551741 -0.0803834 0.0677722 0.0569457 -0.074938 
0.0685478 0.0586856 -0.069686 0.0675593 0.0599402 -0.0673994 0.0664315 0.0611286 -0.0654263 
0.0640768 0.0617348 -0.0662124 0.0615504 0.0622198 -0.0673726 0.0579933 0.0619771 -0.070777 
0.0542575 0.0615169 -0.0745037 0.0497277 0.06009 -0.0796625 0.0451578 0.0583238 -0.0849055 
0.0404492 0.055386 -0.0904395 0.0650775 0.0582703 -0.0921668 0.0687914 0.0596941 -0.0832826 
0.0694774 0.0608973 -0.077364 0.0700426 0.0620727 -0.0716591 0.0687568 0.0628218 -0.0692331 
0.0673229 0.0635098 -0.0671534 0.0645861 0.0636605 -0.0681207 0.0616581 0.0636958 -0.0695084 
0.0575821 0.0630381 -0.073418 0.0532964 0.0621695 -0.0777092 0.0480788 0.0603633 -0.0836965 
0.0428131 0.0582229 -0.0898267 0.0373819 0.0549283 -0.0964508 0.0668958 0.0636407 -0.0957402 
0.0706056 0.0644117 -0.0860759 0.071092 0.0650233 -0.0796988 0.0714519 0.065611 -0.0735554 
0.0698732 0.065834 -0.0709951 0.0681378 0.0660014 -0.0688131 0.0650227 0.0656788 -0.069959 
0.0616966 0.065247 -0.0715706 0.0571048 0.0641599 -0.0759766 0.0522721 0.0628693 -0.0808231 
0.0463691 0.0606747 -0.0876268 0.0404098 0.0581527 -0.0946327 0.0342567 0.0545002 -0.102337 
0.0664007 0.0742645 -0.0962292 0.070174 0.0737746 -0.0863815 0.0705782 0.0732462 -0.0798932 
0.0708498 0.072702 -0.0736445 0.0690866 0.0719168 -0.0710717 0.0671557 0.0710878 -0.0688901 
0.063749 0.0698723 -0.0701516 0.0601097 0.0685652 -0.0719039 0.0550752 0.0667081 -0.0766009 
0.0497656 0.0646782 -0.081783 0.0432329 0.0618811 -0.0891208 0.0366282 0.0588055 -0.0967321 
0.0297747 0.0547678 -0.105288 0.0657071 0.0848572 -0.0964414 0.0695495 0.083126 -0.0864718 
0.0698825 0.0814721 -0.0799064 0.0700765 0.0798103 -0.0735852 0.0681397 0.0780279 -0.071009 
0.0660245 0.0762132 -0.068835 0.0623382 0.0741151 -0.0702 0.0583986 0.0719434 -0.072078 
0.0529389 0.0693305 -0.0770338 0.0471714 0.066578 -0.0825158 0.0400357 0.063205 -0.0903363 
0.0328134 0.0596076 -0.0984979 0.0252912 0.0552348 -0.107838 0.0627814 0.0951013 -0.0935395 
0.0667558 0.0923482 -0.0841407 0.0671394 0.089732 -0.0778817 0.0673779 0.0871133 -0.0718545 
0.0653908 0.0844564 -0.0693803 0.0632157 0.0817781 -0.0672946 0.0593854 0.0789117 -0.0686264 
0.0552898 0.0759966 -0.0704611 0.0496016 0.0727891 -0.0753139 0.0435919 0.0695004 -0.0806941 
0.0361534 0.0658508 -0.0884189 0.0286258 0.0620899 -0.0965114 0.0207908 0.0579443 -0.105875 
0.0596764 0.105087 -0.0903751 0.0637754 0.10139 -0.0816109 0.0642116 0.097869 -0.0756938 
0.0644968 0.0943503 -0.0699941 0.0624667 0.0908604 -0.0676273 0.06024 0.087359 -0.0656321 
0.056282 0.0837554 -0.0669066 0.052049 0.0801273 -0.0686697 0.0461663 0.0763521 -0.0733647 
0.0399533 0.0725543 -0.078582 0.0322725 0.0686557 -0.0861209 0.0245047 0.0647595 -0.0940442 
0.0164365 0.0608717 -0.103296 0.0552869 0.113221 -0.0853294 0.0594572 0.109135 -0.0776572 
0.0599598 0.105125 -0.0723356 0.060308 0.101114 -0.0672038 0.0582874 0.0970889 -0.0649825 
0.056068 0.093054 -0.0630946 0.0520983 0.0889362 -0.0641392 0.0478623 0.0848138 -0.0656268 
0.0420286 0.0806638 -0.0697724 0.0358909 0.0765504 -0.0743885 0.0284023 0.0725999 -0.0810962 
0.0208595 0.0687706 -0.0881319 0.0131295 0.0653597 -0.0963009 0.0509033 0.120875 -0.0802693 
0.0551072 0.116523 -0.073714 0.0556494 0.112119 -0.0690017 0.0560344 0.10771 -0.0644503 
0.0540095 0.103217 -0.0623678 0.0517854 0.0987146 -0.0605778 0.0478087 0.0941286 -0.0613615 
0.043578 0.0895551 -0.062539 0.0378234 0.0850573 -0.0660794 0.0317964 0.0806508 -0.070034 
0.0245582 0.0766509 -0.0758292 0.0173014 0.0728816 -0.0818902 0.0099807 0.0699088 -0.0888687 
0.0465504 0.126073 -0.0751359 0.0505947 0.122082 -0.0698248 0.0510385 0.117772 -0.0657924 
0.0513266 0.113443 -0.0618859 0.0492263 0.108831 -0.0599071 0.0469363 0.104198 -0.0581673 
0.0429763 0.0993794 -0.058531 0.0387933 0.0945768 -0.0592213 0.0332726 0.0898697 -0.0618707 
0.0275373 0.0852857 -0.064854 0.020848 0.0812486 -0.0693209 0.0141906 0.0775041 -0.0739601 
0.00764332 0.0747703 -0.0791946 0.0424885 0.130679 -0.0703881 0.046304 0.127175 -0.0663066 
0.046584 0.123063 -0.0629433 0.0467105 0.118917 -0.0596699 0.0444856 0.11426 -0.0577744 
0.0420829 0.109567 -0.0560633 0.0381154 0.104562 -0.0559744 0.0339598 0.0995718 -0.0561438 
0.0286751 0.0946734 -0.0578637 0.0232367 0.0899232 -0.0598383 0.0171149 0.0858323 -0.0629454 
0.0110754 0.082085 -0.0661378 0.00532014 0.0795249 -0.0696246 0.0395615 0.13298 -0.0671442 
0.0428785 0.130454 -0.0642354 0.0427389 0.126945 -0.0614983 0.0424522 0.12338 -0.058813 
0.0399104 0.118967 -0.0569216 0.0372127 0.114493 -0.055155 0.0331434 0.109478 -0.0544857 
0.0289355 0.104462 -0.0540034 0.0238952 0.0994426 -0.0546428 0.0187739 0.0945714 -0.0554632 
0.0132926 0.0903613 -0.0570881 0.00794367 0.0865034 -0.0587355 0.00305237 0.0838624 -0.0604604 
0.0372158 0.134636 -0.0647186 0.0399452 0.133185 -0.0629661 0.0392831 0.130365 -0.0608372 
0.038481 0.127466 -0.0587213 0.0355315 0.123358 -0.0568031 0.0324512 0.11916 -0.054949 
0.0282197 0.114168 -0.0536595 0.0239033 0.109156 -0.0524869 0.0190779 0.104024 -0.0520157 
0.0142474 0.0990368 -0.0516582 0.009394 0.0946965 -0.0518059 0.00472493 0.0907134 -0.0519266 
0.000692762 0.0879643 -0.0519539 0.0707758 0.0494295 -0.09633 0.0735743 0.0522283 -0.0864666 
0.0730259 0.0544539 -0.0797036 0.0723552 0.0566286 -0.0731491 0.0698075 0.0580231 -0.0697905 
0.0671339 0.0593201 -0.0667457 0.0633514 0.059759 -0.0664628 0.0594446 0.0600321 -0.0665352 
0.0547916 0.0593109 -0.0687399 0.0500613 0.0583142 -0.0712524 0.0449878 0.0560934 -0.0751331 
0.0400495 0.0534727 -0.0791433 0.0355787 0.0494704 -0.0836009 0.073415 0.055387 -0.100948 
0.0760851 0.0574078 -0.0900089 0.0751753 0.0589745 -0.0826084 0.0741373 0.0604977 -0.0754396 
0.0711337 0.0613535 -0.0718232 0.0679954 0.0621217 -0.0685529 0.0636731 0.0621195 -0.0683288 
0.0592065 0.0619626 -0.0685019 0.0538747 0.0608772 -0.0710584 0.0484365 0.0595262 -0.0739786 
0.0425256 0.0569955 -0.0785149 0.0367576 0.0540666 -0.0832509 0.0314834 0.0497623 -0.0886772 
0.075932 0.0616027 -0.105412 0.0784809 0.0628123 -0.0934306 0.0772196 0.0636925 -0.0854122 
0.0758242 0.0645369 -0.077648 0.0723735 0.0648322 -0.073782 0.0687794 0.0650506 -0.0702937 
0.0639242 0.0645909 -0.0701286 0.0589047 0.0639884 -0.0704018 0.0528995 0.0625281 -0.0733048 
0.0467583 0.0608137 -0.0766267 0.0400125 0.0579701 -0.0818105 0.0334163 0.0547325 -0.0872652 
0.0273367 0.0501334 -0.0936557 0.0755773 0.0738857 -0.106262 0.0781766 0.0735026 -0.0940175 
0.0767957 0.0730488 -0.0858406 0.0752734 0.0725753 -0.0779245 0.0715845 0.0717993 -0.074006 
0.0677393 0.0709695 -0.0704769 0.0625186 0.0696663 -0.0703746 0.0571076 0.0682515 -0.0707328 
0.0505547 0.0661669 -0.0738535 0.0438241 0.0638731 -0.0774378 0.0363032 0.0606493 -0.0830826 
0.0289144 0.0570884 -0.0890877 0.0219815 0.0523628 -0.0963377 0.0749674 0.0861157 -0.106776 
0.0776341 0.0841614 -0.0943508 0.0761567 0.0823896 -0.0860615 0.0745307 0.080614 -0.0780376 
0.070626 0.0787793 -0.0740839 0.066552 0.076914 -0.0705291 0.060988 0.0747802 -0.0704853 
0.0552085 0.0725669 -0.0709213 0.048135 0.0698773 -0.0742368 0.0408436 0.0670262 -0.0780573 
0.0325832 0.0634581 -0.0841224 0.0244376 0.0596171 -0.0906333 0.0166888 0.0548332 -0.098684 
0.071486 0.0977505 -0.103518 0.0744113 0.0944661 -0.0918304 0.0730991 0.0915561 -0.083946 
0.0716303 0.0886559 -0.0763121 0.0677601 0.0859046 -0.072519 0.0637075 0.0831464 -0.0691093 
0.0580507 0.0803271 -0.0690732 0.0521608 0.0774706 -0.0695069 0.0448719 0.0743914 -0.0727592 
0.0373422 0.0712333 -0.0765215 0.0287422 0.0677249 -0.0825499 0.0202441 0.0640896 -0.0890638 
0.0120981 0.0600157 -0.097255 0.0677662 0.109027 -0.0999323 0.0709538 0.104507 -0.0890646 
0.0698231 0.100527 -0.0816326 0.0685281 0.0965682 -0.0744342 0.0647143 0.0929469 -0.0708167 
0.0607062 0.0893408 -0.0675641 0.0549877 0.0858685 -0.0675219 0.0490214 0.0824005 -0.0679354 
0.0415676 0.0789577 -0.0710824 0.0338559 0.0755183 -0.0747378 0.0249975 0.072094 -0.080652 
0.0162332 0.0686893 -0.087079 0.00779372 0.0653523 -0.0952774 0.0623375 0.117735 -0.0940001 
0.0658142 0.112657 -0.0845396 0.0649816 0.108092 -0.0779011 0.0639795 0.103553 -0.0714649 
0.0603802 0.0993936 -0.0681302 0.0565812 0.095262 -0.0651207 0.0510242 0.0913713 -0.0649732 
0.0452245 0.087519 -0.0652381 0.0379683 0.0838982 -0.0679773 0.0304774 0.0803611 -0.0711768 
0.0219435 0.0771963 -0.0764218 0.0135314 0.0742014 -0.0821173 0.00554034 0.0717934 -0.0893692 
0.056891 0.1258 -0.0880173 0.0606224 0.120308 -0.0799886 0.0600693 0.115268 -0.0741607 
0.0593428 0.110254 -0.0685027 0.0559557 0.105631 -0.0654498 0.0523654 0.101045 -0.0626803 
0.0469871 0.0967809 -0.0624045 0.0413749 0.0925854 -0.0624946 0.0343595 0.0888039 -0.06478 
0.0271381 0.0851794 -0.0674727 0.0190009 0.0822536 -0.0719758 0.0110159 0.079634 -0.0768594 
0.00355624 0.0780722 -0.0830576 0.0513537 0.130561 -0.0817751 0.0551623 0.125402 -0.075304 
0.0547946 0.120445 -0.0703748 0.0542544 0.115503 -0.0655774 0.0510676 0.110797 -0.0628013 
0.0476843 0.106121 -0.0602554 0.0425728 0.101713 -0.0597339 0.0372553 0.0973846 -0.0595149 
0.0307025 0.0935308 -0.0611105 0.0239997 0.0898719 -0.0630355 0.0166299 0.0870799 -0.0664246 
0.00945476 0.0846588 -0.0700843 0.00295228 0.0835195 -0.0746789 0.046121 0.134553 -0.0759027 
0.0499341 0.129864 -0.0709557 0.0496888 0.125103 -0.0669065 0.0492729 0.120344 -0.062951 
0.0462431 0.115632 -0.0604316 0.0430261 0.110941 -0.058088 0.0381622 0.106434 -0.0572922 
0.0331234 0.102011 -0.0567345 0.0270357 0.0980922 -0.0576061 0.0208554 0.0943966 -0.0587303 
0.0142635 0.0916949 -0.0609768 0.00790634 0.0894132 -0.0633906 0.00236001 0.0885825 -0.0663825 
0.042076 0.135546 -0.071472 0.0456104 0.131864 -0.0679188 0.0452412 0.127734 -0.0646772 
0.0447084 0.123588 -0.0614907 0.0416668 0.119177 -0.0591488 0.0384568 0.114764 -0.0569252 
0.0337663 0.110331 -0.0557428 0.0289439 0.105966 -0.0547313 0.0233307 0.102008 -0.0547456 
0.0176882 0.0982665 -0.0549397 0.0119155 0.095486 -0.0559327 0.00640733 0.093113 -0.0570151 
0.0018134 0.0921475 -0.0584063 0.0386299 0.135752 -0.0678153 0.0417947 0.133163 -0.0656093 
0.0412029 0.129749 -0.0631427 0.0404553 0.126297 -0.0606925 0.0373169 0.12225 -0.0584947 
0.0340317 0.118175 -0.0563574 0.029454 0.113852 -0.0547524 0.0247905 0.109577 -0.0532525 
0.0196116 0.105588 -0.0523832 0.0144675 0.101803 -0.0516267 0.00947756 0.0989232 -0.0513716 
0.00478202 0.0964329 -0.0511416 0.00110337 0.0952893 -0.0509981 0.0822694 0.0438857 -0.100888 
0.0835094 0.0480856 -0.0891409 0.0810482 0.051132 -0.0812185 0.0784746 0.0541003 -0.0735245 
0.0741783 0.0558709 -0.0693341 0.0697904 0.0575108 -0.06546 0.0645955 0.0579997 -0.064369 
0.0593308 0.0582836 -0.0636159 0.0536474 0.0573372 -0.0648904 0.0479644 0.0560615 -0.0664526 
0.0422828 0.0533226 -0.0692937 0.0368508 0.0501033 -0.072278 0.0322807 0.0452244 -0.075757 
0.086316 0.0509562 -0.106417 0.0871318 0.0541145 -0.0932001 0.0840444 0.056348 -0.0844475 
0.0808431 0.0585157 -0.0759515 0.0758942 0.059676 -0.0713912 0.0708494 0.060721 -0.0671806 
0.0649611 0.0607523 -0.0660464 0.0589844 0.0605945 -0.0652884 0.0524772 0.0593015 -0.0667875 
0.0459374 0.0576914 -0.0686232 0.0392522 0.0546723 -0.0719554 0.0328231 0.051168 -0.0754969 
0.0272786 0.0459876 -0.0797609 0.0901981 0.0583359 -0.111767 0.0906058 0.0604058 -0.0971248 
0.0869102 0.0617913 -0.0875667 0.0830987 0.0631242 -0.0782925 0.0775116 0.063649 -0.0733735 
0.0718241 0.0640752 -0.0688365 0.0652532 0.0636321 -0.0676615 0.0585747 0.0630169 -0.0669001 
0.051251 0.0613687 -0.0686205 0.0438606 0.0594174 -0.0707261 0.0361737 0.0561193 -0.074544 
0.0287473 0.0523341 -0.0786379 0.0222211 0.0468661 -0.0836852 0.09021 0.0729798 -0.112934 
0.0905944 0.0728639 -0.0978898 0.0867086 0.0725774 -0.0881053 0.0827006 0.0722658 -0.0786128 
0.076816 0.0715687 -0.0735967 0.0708176 0.0708091 -0.0689738 0.063817 0.069499 -0.067812 
0.056678 0.0680608 -0.0670826 0.0487079 0.0658542 -0.0689483 0.0406138 0.0634013 -0.0712382 
0.0319685 0.059854 -0.0754135 0.0235406 0.055884 -0.0799502 0.0158639 0.0504537 -0.0857349 
0.0898595 0.0875471 -0.113697 0.0902625 0.085271 -0.0983629 0.0862306 0.0833307 -0.0884115 
0.0820694 0.0813926 -0.0787579 0.0759242 0.0794879 -0.0736693 0.0696511 0.077557 -0.0689829 
0.0622536 0.075395 -0.0678358 0.0546871 0.0731501 -0.0671375 0.0461066 0.0704082 -0.0691328 
0.0373464 0.0674808 -0.0715884 0.0277876 0.0637291 -0.0760896 0.0184035 0.0596295 -0.0810338 
0.00962318 0.0543278 -0.0875078 0.0854314 0.101253 -0.109932 0.0863256 0.0971033 -0.0955527 
0.0826422 0.0937148 -0.086103 0.0788174 0.0903532 -0.0769328 0.0728244 0.0874027 -0.0720489 
0.0666851 0.084463 -0.0675496 0.0592578 0.0816184 -0.0664345 0.0516363 0.0787491 -0.0657569 
0.0428498 0.0757319 -0.0677049 0.0338466 0.072635 -0.0701167 0.0238802 0.0691841 -0.07459 
0.0140504 0.0655761 -0.0795453 0.00469257 0.0614252 -0.086166 0.0806632 0.114463 -0.105774 
0.0820727 0.10857 -0.0924551 0.0787741 0.10382 -0.0835672 0.0753222 0.0991199 -0.0749384 
0.0695203 0.0951787 -0.0702826 0.0635541 0.0912835 -0.0659908 0.0561423 0.0877928 -0.0649024 
0.0485142 0.0843342 -0.0642366 0.0395882 0.0810686 -0.0661063 0.030416 0.0778287 -0.0684375 
0.0201492 0.0747029 -0.0728204 0.00999035 0.0716113 -0.0777124 0.000204298 0.0686381 -0.0843635 
0.0734575 0.124121 -0.0988064 0.0755535 0.117421 -0.0872978 0.0729012 0.11193 -0.0794026 
0.0700847 0.106497 -0.07173 0.064751 0.101961 -0.06747 0.0592399 0.097492 -0.0635325 
0.052169 0.0936164 -0.062433 0.0448812 0.0898201 -0.0617147 0.0362923 0.0864995 -0.0632837 
0.0274811 0.0833063 -0.0652708 0.0176821 0.0806792 -0.0691155 0.00803014 0.0782817 -0.0734102 
-0.00111399 0.0766777 -0.0792592 0.0662168 0.132926 -0.091771 0.0689608 0.125611 -0.08209 
0.066941 0.119513 -0.0752058 0.0647474 0.11348 -0.0685066 0.0598885 0.108435 -0.064646 
0.0548414 0.103476 -0.0610645 0.048139 0.0992633 -0.0599385 0.0412232 0.0951724 -0.0591495 
0.0330269 0.0918092 -0.0603825 0.0246386 0.0886657 -0.0619855 0.015397 0.0864984 -0.0652331 
0.00634507 0.0847358 -0.068864 -0.0020517 0.0843711 -0.073819 0.0587966 0.137358 -0.0843882 
0.0619916 0.130411 -0.0766241 0.0605339 0.1244 -0.0708433 0.058899 0.118444 -0.0652058 
0.0545488 0.113334 -0.0617636 0.0500106 0.108306 -0.058547 0.0438185 0.104005 -0.0573157 
0.0374369 0.0998402 -0.0563625 0.0299182 0.0964973 -0.0570775 0.0222697 0.0934183 -0.0580925 
0.0140447 0.0915124 -0.0604406 0.00607018 0.0900812 -0.0630676 -0.00103896 0.0902898 -0.0666579 
0.0517424 0.140838 -0.077383 0.0552964 0.13442 -0.0714735 0.0543282 0.128624 -0.0667673 
0.0531814 0.122871 -0.0621628 0.0492959 0.117783 -0.0591182 0.0452253 0.112771 -0.0562454 
0.0395264 0.108427 -0.0548845 0.0336646 0.104229 -0.0537422 0.0268255 0.100906 -0.0539115 
0.0199187 0.0978792 -0.0543115 0.0127111 0.0961692 -0.0557375 0.00580789 0.0949822 -0.0573441 
-4.37483e-05 0.0956022 -0.0595747 0.0461154 0.140603 -0.0718509 0.0496693 0.135342 -0.0675534 
0.0489085 0.130263 -0.0638082 0.0479742 0.125207 -0.0601252 0.0443814 0.120483 -0.0573972 
0.0406172 0.115813 -0.0547857 0.0353449 0.111606 -0.0532004 0.029947 0.107529 -0.0517723 
0.0237953 0.104225 -0.0512871 0.0176371 0.101202 -0.0509673 0.0114504 0.099433 -0.051383 
0.00559479 0.0981505 -0.0519052 0.000883095 0.09855 -0.0527957 0.0411689 0.139484 -0.0670692 
0.0446136 0.135462 -0.0643036 0.0439505 0.131184 -0.0614711 0.0431205 0.126904 -0.0586621 
0.0397312 0.12261 -0.0562144 0.0361868 0.118343 -0.0538285 0.031277 0.114312 -0.0519865 
0.0262808 0.110387 -0.0502417 0.0207658 0.107107 -0.0490796 0.0153039 0.104088 -0.0480226 
0.0100784 0.10223 -0.047433 0.00520713 0.100816 -0.0468881 0.00155953 0.100941 -0.0464975 
0.0939893 0.0382392 -0.105045 0.0936075 0.0438937 -0.091473 0.0891976 0.0477842 -0.0824426 
0.084687 0.0515686 -0.0736599 0.0786325 0.0537275 -0.0686763 0.0725221 0.0557223 -0.0640103 
0.0659198 0.0562721 -0.0621394 0.059303 0.0565782 -0.0605878 0.0525993 0.0554213 -0.0609526 
0.045973 0.0538828 -0.0615835 0.0396905 0.0506479 -0.0633971 0.0337691 0.0468545 -0.0653646 
0.0290954 0.0411313 -0.0678638 0.0995045 0.0464401 -0.111457 0.0983799 0.0507808 -0.096024 
0.0930685 0.0537007 -0.0859747 0.0876595 0.0565322 -0.0762064 0.0807524 0.0580073 -0.0707438 
0.0737901 0.0593394 -0.0656331 0.0663416 0.0594138 -0.0636191 0.0588615 0.0592651 -0.0619589 
0.051192 0.057778 -0.0624218 0.0435631 0.0559236 -0.0631925 0.0361152 0.052437 -0.065331 
0.0290339 0.0483807 -0.0676835 0.023219 0.0423563 -0.0707753 0.104811 0.0550023 -0.117667 
0.10297 0.0579684 -0.100427 0.0967828 0.059875 -0.0893889 0.0905009 0.0617116 -0.0786633 
0.0827615 0.0624745 -0.0727356 0.0749669 0.063117 -0.0671931 0.0666866 0.0626988 -0.0650403 
0.0583569 0.0620798 -0.0632751 0.0497306 0.0602556 -0.0638351 0.0411069 0.0580808 -0.0647442 
0.0324948 0.0543477 -0.0672045 0.0242517 0.0500372 -0.0699397 0.0172834 0.0437317 -0.0736244 
0.105213 0.07205 -0.119141 0.103266 0.0722162 -0.10136 0.0968144 0.072104 -0.090028 
0.0902625 0.0719611 -0.0790183 0.0821656 0.0713474 -0.0729496 0.0739997 0.0706625 -0.0672768 
0.0652268 0.0693506 -0.0650877 0.0563688 0.0678947 -0.0633017 0.0470003 0.0655743 -0.063934 
0.0375621 0.0629717 -0.064948 0.0278136 0.0591155 -0.067658 0.0183658 0.0547535 -0.0707218 
0.00995694 0.0486442 -0.0750076 0.10514 0.0889973 -0.120146 0.103156 0.0863934 -0.101964 
0.0965061 0.084283 -0.090411 0.0897487 0.0821809 -0.0791871 0.0813458 0.0802067 -0.0730091 
0.0728592 0.0782106 -0.0672351 0.0636366 0.0760222 -0.0650172 0.0542936 0.0737479 -0.0632156 
0.0442276 0.0709582 -0.0639116 0.0340212 0.0679597 -0.0650194 0.0231905 0.0640339 -0.0679568 
0.0125926 0.0596873 -0.0713235 0.00279925 0.053887 -0.0761732 0.0997314 0.104814 -0.11588 
0.0984853 0.0997751 -0.0988702 0.0923733 0.0958986 -0.0879127 0.0861378 0.0920663 -0.0772629 
0.0780074 0.0889127 -0.0713314 0.0697691 0.0857878 -0.0657844 0.0605807 0.082916 -0.0636213 
0.051239 0.0800322 -0.0618618 0.0409777 0.0770759 -0.0625246 0.0305249 0.0740395 -0.063601 
0.0192212 0.0706473 -0.0665158 0.00808734 0.0670687 -0.069897 -0.00245992 0.0628464 -0.0748898 
0.0938777 0.119995 -0.111161 0.0934146 0.112689 -0.0954489 0.0878979 0.107152 -0.0851591 
0.0822413 0.101693 -0.0751532 0.0744389 0.0974246 -0.0694999 0.0665047 0.0932328 -0.0642085 
0.05741 0.0897178 -0.0621032 0.0481324 0.0862629 -0.0603857 0.0377578 0.0831683 -0.0609954 
0.02715 0.0801214 -0.0620157 0.0155057 0.0772867 -0.0648608 0.00398207 0.0745007 -0.0681982 
-0.00712494 0.0718832 -0.0732367 0.0848359 0.130618 -0.103183 0.0854783 0.122252 -0.0896793 
0.0809669 0.115815 -0.0805757 0.0762984 0.109469 -0.0717142 0.0692212 0.104546 -0.0665653 
0.0619913 0.0997295 -0.0617351 0.0534168 0.0958601 -0.05971 0.044653 0.0921103 -0.0580334 
0.0347532 0.0890789 -0.0584479 0.0246447 0.0862177 -0.059234 0.0136086 0.0841127 -0.061672 
0.00274332 0.0822959 -0.0645473 -0.00753201 0.0814743 -0.0689333 0.0757436 0.140176 -0.0951217 
0.0774481 0.130991 -0.0838362 0.0739323 0.123814 -0.0759375 0.0702439 0.116741 -0.0682386 
0.0639073 0.111262 -0.0636023 0.0573993 0.105915 -0.0592399 0.049383 0.101743 -0.057287 
0.041175 0.0977442 -0.0556409 0.0318176 0.0947837 -0.0558352 0.0222832 0.092104 -0.0563587 
0.0119617 0.0906724 -0.0583445 0.00186579 0.0897415 -0.0607059 -0.00745067 0.0905401 -0.0643643 
0.0663932 0.144277 -0.0866338 0.0689372 0.135501 -0.0776164 0.0663678 0.128416 -0.071019 
0.0636178 0.121427 -0.0645756 0.0581003 0.1159 -0.060494 0.0524046 0.110507 -0.0566328 
0.0451407 0.106299 -0.0547115 0.0377047 0.102284 -0.0530428 0.0292362 0.0994329 -0.0528894 
0.0206587 0.0969134 -0.0530035 0.0115969 0.0958666 -0.0543065 0.00283959 0.0953956 -0.0558885 
-0.00486613 0.0969133 -0.0584339 0.0574747 0.147242 -0.0785321 0.0607449 0.139062 -0.0716918 
0.0590391 0.132214 -0.0663561 0.0571473 0.125451 -0.0611298 0.0524035 0.119973 -0.0575816 
0.0474778 0.114627 -0.0542005 0.040951 0.11043 -0.052291 0.034274 0.106439 -0.0505796 
0.0266959 0.103691 -0.0500568 0.0190751 0.10131 -0.0497408 0.0112644 0.100561 -0.0503442 
0.00382576 0.100436 -0.0511357 -0.00232799 0.102464 -0.0525769 0.0502405 0.145776 -0.071936 
0.0537951 0.138916 -0.066918 0.0526305 0.132874 -0.06269 0.0512833 0.126893 -0.0585311 
0.0471363 0.121844 -0.0554334 0.0428156 0.116903 -0.0524502 0.0369661 0.112906 -0.0504749 
0.0309978 0.109098 -0.0486423 0.024316 0.106425 -0.047666 0.0176505 0.104098 -0.0468393 
0.0110575 0.103309 -0.0466773 0.00486017 0.103084 -0.0466349 2.92544e-05 0.104808 -0.0470059 
0.0437727 0.143334 -0.0660666 0.0474831 0.137866 -0.0627575 0.0467382 0.132713 -0.0595737 
0.0458159 0.127596 -0.0564203 0.0421717 0.123043 -0.0537342 0.0383647 0.11857 -0.051111 
0.0331245 0.114812 -0.0490412 0.0277978 0.11122 -0.0470603 0.0219515 0.108624 -0.045612 
0.0161766 0.106346 -0.0442602 0.0107189 0.105478 -0.0433369 0.00567331 0.105109 -0.0424755 
0.00205164 0.106465 -0.0418276 0.109182 0.0310165 -0.103043 0.106203 0.0389477 -0.0885551 
0.0992968 0.0440394 -0.0792089 0.092326 0.0489866 -0.0701173 0.0843648 0.0517196 -0.0649303 
0.0764065 0.054253 -0.060046 0.0684745 0.0550306 -0.057826 0.0605944 0.055534 -0.0558902 
0.053025 0.0543923 -0.0556608 0.0456013 0.0528375 -0.0556521 0.0388247 0.049447 -0.0566245 
0.0324818 0.0454546 -0.0577155 0.0276374 0.0393826 -0.0592163 0.1171 0.0406154 -0.109924 
0.112717 0.0468292 -0.0932146 0.104469 0.0507363 -0.0827219 0.0961709 0.0545236 -0.0725208 
0.0871087 0.0564728 -0.0667922 0.0780609 0.0582501 -0.0614001 0.06914 0.058515 -0.0589681 
0.0602603 0.0585313 -0.0568487 0.0516273 0.0570558 -0.0566048 0.0431041 0.055184 -0.0566081 
0.0350692 0.0515513 -0.05771 0.0274719 0.047302 -0.0589606 0.0213863 0.0409228 -0.0607254 
0.124742 0.0506434 -0.11659 0.118998 0.0550574 -0.0977225 0.109447 0.0577263 -0.0861156 
0.0998601 0.0603011 -0.0748364 0.0897243 0.0614334 -0.0685812 0.0796135 0.0624231 -0.0626951 
0.0697221 0.0621567 -0.0600566 0.0598601 0.061669 -0.0577581 0.0501744 0.0598532 -0.0574999 
0.040561 0.0576605 -0.0575149 0.031269 0.0537924 -0.0587442 0.0224146 0.0492969 -0.0601528 
0.0150723 0.042634 -0.0621806 0.12589 0.0707536 -0.118223 0.119824 0.0714301 -0.0986651 
0.109876 0.0715998 -0.0867074 0.0998899 0.0717308 -0.075088 0.089325 0.0712691 -0.0686567 
0.0787738 0.0707284 -0.0626043 0.0683436 0.0694929 -0.0598846 0.0579064 0.0681043 -0.0575151 
0.0474273 0.0657966 -0.0572464 0.0369401 0.063189 -0.0572674 0.0264164 0.0592488 -0.0585757 
0.0162429 0.0547572 -0.0601 0.00727916 0.0483613 -0.06237 0.126379 0.090736 -0.119343 
0.120116 0.0877124 -0.099263 0.109871 0.0854069 -0.0870355 0.0995841 0.0831176 -0.0751542 
0.0886601 0.0810795 -0.0685822 0.077737 0.0790262 -0.0623962 0.0668211 0.0768401 -0.0596063 
0.0558617 0.0745705 -0.0571747 0.0446404 0.0717996 -0.0568927 0.033332 0.0688114 -0.0569151 
0.0216365 0.0648569 -0.0582903 0.0102041 0.0604423 -0.0599162 -0.000319662 0.0544379 -0.0624079 
0.119469 0.109282 -0.1147 0.114405 0.102978 -0.0959818 0.104987 0.0984656 -0.0843981 
0.0955031 0.0940208 -0.0731369 0.0850082 0.0906056 -0.0668198 0.074482 0.08724 -0.060868 
0.0636795 0.0843109 -0.0581317 0.0527933 0.0813845 -0.0557394 0.0414053 0.0784746 -0.0554122 
0.029869 0.0754897 -0.0553846 0.0176742 0.0721722 -0.0566891 0.00565961 0.0686546 -0.0582581 
-0.00573194 0.0644458 -0.0607412 0.111962 0.127004 -0.109573 0.108177 0.117654 -0.0923586 
0.0996723 0.11107 -0.0814977 0.0910768 0.104601 -0.0709329 0.0810851 0.0998854 -0.0649064 
0.0710296 0.0952807 -0.059222 0.0604122 0.0916538 -0.0565481 0.049674 0.0881138 -0.0542017 
0.0382114 0.0850947 -0.0538202 0.0265497 0.0821422 -0.0537307 0.0140026 0.0794861 -0.054939 
0.00157051 0.0768906 -0.0564203 -0.0104646 0.0745043 -0.0588444 0.100176 0.138827 -0.100968 
0.0982486 0.128107 -0.0862848 0.0912727 0.120421 -0.0767125 0.0841755 0.11287 -0.0673907 
0.0752182 0.107401 -0.0619112 0.0661628 0.102081 -0.0567309 0.0562444 0.098081 -0.0541841 
0.0461891 0.0942357 -0.0519296 0.0353132 0.0913221 -0.0514295 0.0242595 0.0886095 -0.0511922 
0.0124154 0.0867903 -0.0521228 0.000744824 0.0852963 -0.0532942 -0.0103267 0.0849256 -0.0552979 
0.0883528 0.149329 -0.0922913 0.0882181 0.137555 -0.0801334 0.0827578 0.128966 -0.0718657 
0.0771481 0.120529 -0.0638028 0.0692454 0.114424 -0.0588807 0.0612129 0.108501 -0.0542137 
0.0520381 0.104185 -0.0517919 0.0427147 0.100086 -0.0496257 0.0325001 0.0972854 -0.0489931 
0.0221365 0.0948071 -0.048592 0.011111 0.0937607 -0.0492194 0.000322912 0.0932734 -0.0500525 
-0.00964527 0.0947178 -0.0515961 0.0763462 0.153058 -0.0832469 0.0776641 0.141849 -0.0735844 
0.073653 0.133386 -0.0667038 0.0694746 0.125066 -0.0599805 0.0627305 0.118922 -0.0556693 
0.0558376 0.112963 -0.0515626 0.047635 0.108633 -0.0492558 0.039294 0.104543 -0.047159 
0.0301231 0.101895 -0.0463225 0.0208707 0.099622 -0.0456754 0.0112559 0.0990201 -0.0458699 
0.00197037 0.0990543 -0.0462184 -0.00617775 0.101286 -0.047099 0.0649069 0.155471 -0.0746025 
0.0675153 0.145042 -0.0673158 0.0648446 0.136875 -0.0617741 0.0619922 0.128835 -0.0563439 
0.0563526 0.122763 -0.0526223 0.0505489 0.116872 -0.0490553 0.0433015 0.112581 -0.0468478 
0.0359285 0.108544 -0.0448048 0.0278018 0.10604 -0.0437488 0.0196581 0.103948 -0.0428407 
0.0114393 0.103695 -0.0425897 0.00362719 0.104124 -0.0424444 -0.00277962 0.10691 -0.042664 
0.0556801 0.152752 -0.0675186 0.0589464 0.143947 -0.0621409 0.0571927 0.136729 -0.05775 
0.0552557 0.129612 -0.0534311 0.0505091 0.124038 -0.0502166 0.045598 0.118621 -0.0471088 
0.0392398 0.114577 -0.0449395 0.0327783 0.110768 -0.0428892 0.0256974 0.108375 -0.0415529 
0.0186533 0.106369 -0.0403251 0.0117728 0.106089 -0.0395801 0.00532051 0.106419 -0.038905 
0.00034791 0.108854 -0.0384712 0.0473706 0.149008 -0.0611317 0.0511271 0.141886 -0.0575257 
0.0501417 0.135698 -0.0542132 0.0489743 0.129583 -0.0509354 0.0450137 0.124578 -0.0481887 
0.0408915 0.119701 -0.0455023 0.0353478 0.115943 -0.0433456 0.0297242 0.112397 -0.0412637 
0.0236216 0.110115 -0.0396301 0.0176044 0.108189 -0.0380685 0.0119666 0.10784 -0.0368267 
0.0067695 0.108022 -0.0356248 0.00309484 0.110036 -0.0345611 0.124428 0.0237777 -0.100044 
0.118774 0.0340402 -0.0848969 0.109357 0.0403454 -0.0753936 0.099914 0.0464673 -0.0661479 
0.0900655 0.0497791 -0.0608523 0.0802802 0.0528566 -0.0558411 0.0710499 0.0538713 -0.0533321 
0.0619381 0.054583 -0.05107 0.0535365 0.0534768 -0.050289 0.0453481 0.0519301 -0.0496816 
0.038107 0.0484251 -0.0498453 0.031369 0.044283 -0.0500902 0.0263691 0.0379398 -0.0506155 
0.134827 0.0347771 -0.107268 0.127063 0.0429114 -0.0895841 0.115851 0.0478169 -0.0788281 
0.10464 0.0525708 -0.0683702 0.0934412 0.054999 -0.0624806 0.0823284 0.0572269 -0.0569079 
0.0719707 0.0576914 -0.0541238 0.0617276 0.0578832 -0.0516083 0.0521726 0.0564389 -0.0507042 
0.042797 0.0545732 -0.0499847 0.0342194 0.050835 -0.0500857 0.0261485 0.0464425 -0.050268 
0.0198283 0.03979 -0.0507309 0.14488 0.046274 -0.114268 0.135069 0.0521754 -0.0941176 
0.122114 0.0556166 -0.0821438 0.109185 0.0589394 -0.0705072 0.0966711 0.0604461 -0.0640394 
0.0842642 0.0617883 -0.05792 0.0728012 0.0616823 -0.0548669 0.0614479 0.061336 -0.0521034 
0.0507523 0.0595472 -0.0510775 0.0402005 0.0573591 -0.0502467 0.0302875 0.0533959 -0.050284 
0.0208806 0.0487654 -0.0504023 0.0132218 0.0418297 -0.0508006 0.146809 0.0694614 -0.116017 
0.136442 0.0706668 -0.0950417 0.122951 0.071125 -0.082666 0.10949 0.0715364 -0.0706392 
0.0964749 0.0712311 -0.0639633 0.083559 0.0708395 -0.0576444 0.0715139 0.0696874 -0.0544671 
0.0595422 0.0683742 -0.0515839 0.0480101 0.0660939 -0.0504662 0.0365352 0.0634993 -0.049544 
0.0253145 0.0595081 -0.0494911 0.0144974 0.0549298 -0.0495134 0.00507442 0.0483232 -0.0497957 
0.147892 0.0924936 -0.117218 0.13715 0.0890482 -0.0956102 0.12326 0.0865506 -0.0829208 
0.109398 0.0840775 -0.0705891 0.0959712 0.0819794 -0.0637431 0.0826324 0.0798732 -0.0572602 
0.0700686 0.0776947 -0.0539727 0.0575408 0.0754359 -0.0509825 0.0452294 0.0726943 -0.0497756 
0.03289 0.0697294 -0.0487637 0.0204263 0.0657716 -0.0486183 0.00826399 0.0613233 -0.048542 
-0.00285728 0.0551802 -0.0487046 0.139437 0.113781 -0.112263 0.130384 0.106193 -0.0921782 
0.117618 0.101045 -0.0801679 0.104848 0.0959883 -0.0684896 0.092008 0.0923146 -0.0619008 
0.0792158 0.0887113 -0.0556539 0.0668449 0.0857273 -0.0524157 0.0544631 0.0827609 -0.0494594 
0.0420164 0.0799002 -0.0481938 0.0294718 0.0769709 -0.047112 0.0164922 0.073737 -0.0468467 
0.00371526 0.0702936 -0.0466413 -0.00836213 0.0661259 -0.0466426 0.13023 0.134055 -0.1068 
0.122983 0.122626 -0.0883953 0.111457 0.114994 -0.0771482 0.0998927 0.107513 -0.0662045 
0.0877321 0.102352 -0.0599121 0.0755782 0.0973364 -0.0539379 0.0634836 0.0935971 -0.0507635 
0.0513339 0.0899708 -0.0478537 0.0388532 0.0870226 -0.046531 0.0262154 0.0841595 -0.0453797 
0.0128796 0.0816744 -0.0449908 -0.000332563 0.0792611 -0.0446525 -0.0131177 0.0770959 -0.044489 
0.115637 0.147071 -0.0976994 0.11104 0.133965 -0.0820982 0.101578 0.125029 -0.0722166 
0.0920319 0.116271 -0.06259 0.0812147 0.110258 -0.0568748 0.0703564 0.104436 -0.051436 
0.0591363 0.100301 -0.0484291 0.047835 0.0963549 -0.0456561 0.0360472 0.0935469 -0.0442874 
0.0241195 0.0909685 -0.0430709 0.0115707 0.0894104 -0.0425305 -0.000790542 0.0882091 -0.0420319 
-0.0125036 0.0882404 -0.0416779 0.101027 0.158509 -0.0885399 0.098989 0.144119 -0.075721 
0.0915721 0.134118 -0.0672181 0.0840308 0.124316 -0.058922 0.0745818 0.117585 -0.0537964 
0.0650465 0.111085 -0.0489045 0.0547516 0.106619 -0.0460687 0.0443539 0.102411 -0.0434354 
0.0333397 0.0997515 -0.0420175 0.0222107 0.0974514 -0.0407319 0.0105719 0.0967501 -0.0400343 