# vtk DataFile Version 2.0
vtk output
ASCII
DATASET RECTILINEAR_GRID
DIMENSIONS 13 13 13
X_COORDINATES 13 float
0 0.208333 0.416667 0.625 0.833333 1.04167 1.25 1.45833 1.66667 
1.875 2.08333 2.29167 2.5 
Y_COORDINATES 13 float
5 5.20833 5.41667 5.625 5.83333 6.04167 6.25 6.45833 6.66667 
6.875 7.08333 7.29167 7.5 
Z_COORDINATES 13 float
-5 -4.79167 -4.58333 -4.375 -4.16667 -3.95833 -3.75 -3.54167 -3.33333 
-3.125 -2.91667 -2.70833 -2.5 
POINT_DATA 2197
VECTORS grad float
0.126998 -0.15386 0.0989408 0.0994745 -0.167439 0.0916077 0.0564938 -0.168341 0.0863292 
0.0142849 -0.168201 0.0813612 -0.0160896 -0.152093 0.0811539 -0.0435561 -0.135969 0.0809321 
-0.0454329 -0.119699 0.0805826 -0.045109 -0.104638 0.0798115 -0.0315805 -0.0968274 0.0765108 
-0.0180353 -0.0900089 0.072892 -0.00441563 -0.0876004 0.0678596 0.00802178 -0.0854502 0.0627632 
0.0163749 -0.0841921 0.0574451 0.113177 -0.169617 0.0910107 0.0897584 -0.186317 0.0869175 
0.0556015 -0.189046 0.0838976 0.0220156 -0.190646 0.0810643 -0.00281405 -0.174946 0.0810932 
-0.0254655 -0.158971 0.081105 -0.0289494 -0.140579 0.080966 -0.0305348 -0.123212 0.0804813 
-0.0207298 -0.111993 0.0779222 -0.0106129 -0.101847 0.074995 0.000889747 -0.096472 0.0704319 
0.0115921 -0.0915843 0.0656253 0.0195294 -0.0883814 0.0599775 0.0979216 -0.170012 0.0865064 
0.0790481 -0.18609 0.0851841 0.0533791 -0.189405 0.084028 0.0281203 -0.191744 0.0829541 
0.00914933 -0.179142 0.0831414 -0.00827862 -0.166125 0.083277 -0.0121286 -0.149456 0.082957 
-0.0144671 -0.133472 0.0823414 -0.00773701 -0.121594 0.0799525 -0.000549337 -0.110642 0.0771809 
0.00867197 -0.103802 0.0727092 0.0174172 -0.0975138 0.0678737 0.0245176 -0.0931315 0.061781 
0.0842329 -0.163818 0.0834046 0.0694804 -0.17854 0.0841623 0.0506136 -0.182201 0.0844593 
0.0320393 -0.185059 0.0847664 0.0179471 -0.175614 0.0852308 0.00493146 -0.165703 0.0856078 
0.00138939 -0.151696 0.0852172 -0.000977819 -0.138094 0.0845509 0.00370422 -0.126913 0.0822315 
0.00888765 -0.116468 0.0795115 0.0162995 -0.109289 0.0750114 0.0234546 -0.102646 0.0700542 
0.0297231 -0.0978543 0.0635176 0.0718204 -0.152256 0.0814454 0.0608436 -0.165023 0.0837202 
0.0474056 -0.168835 0.0851357 0.0341773 -0.172031 0.0865157 0.0241654 -0.165792 0.0873536 
0.0149011 -0.159109 0.0880681 0.0122161 -0.148529 0.0876966 0.0104105 -0.138121 0.0870451 
0.0138812 -0.128743 0.0847132 0.017814 -0.119874 0.0819599 0.0238009 -0.113273 0.0773338 
0.0296652 -0.107127 0.0721794 0.0351058 -0.102555 0.0651996 0.0608599 -0.140445 0.0803385 
0.0530592 -0.151632 0.0836891 0.0437803 -0.155616 0.085947 0.034652 -0.159128 0.0881403 
0.0278343 -0.155409 0.089346 0.0215367 -0.151292 0.0904001 0.0198155 -0.143673 0.0901214 
0.0187462 -0.136082 0.0895511 0.0215888 -0.128657 0.0872314 0.0248261 -0.121571 0.0844706 
0.0298181 -0.115992 0.0797488 0.034752 -0.110789 0.0744503 0.0394849 -0.106884 0.0671593 
0.0509007 -0.128462 0.0798195 0.0458624 -0.138327 0.0839415 0.0398671 -0.142498 0.0868513 
0.0339797 -0.14631 0.089679 0.0297452 -0.144639 0.0912484 0.025873 -0.142631 0.0926438 
0.0251891 -0.137652 0.0925085 0.0249767 -0.132618 0.0920653 0.0275933 -0.127251 0.0897749 
0.030518 -0.122089 0.0870242 0.0348117 -0.117839 0.0822276 0.0390638 -0.113885 0.0768217 
0.043172 -0.110957 0.0693105 0.0419576 -0.118232 0.0798692 0.0391566 -0.127074 0.0844962 
0.0356503 -0.131384 0.0878677 0.0322205 -0.135419 0.0911469 0.029964 -0.135236 0.0930107 
0.0279616 -0.134771 0.0946855 0.0281947 -0.131829 0.0946971 0.0287656 -0.128795 0.0943887 
0.0313626 -0.125207 0.0921606 0.0341842 -0.121743 0.0894624 0.0380039 -0.118823 0.0846747 
0.0417674 -0.116144 0.0792688 0.0453369 -0.114294 0.0717277 0.0336044 -0.109021 0.0802491 
0.0327358 -0.117013 0.0852265 0.0312571 -0.121434 0.0889493 0.0298304 -0.125645 0.0925739 
0.0292005 -0.126625 0.0946918 0.0287452 -0.127376 0.0966099 0.0298254 -0.12612 0.0967703 
0.0311367 -0.124763 0.0966012 0.033834 -0.122793 0.0944547 0.0366743 -0.120894 0.0918336 
0.0401499 -0.119307 0.0871032 0.043537 -0.117916 0.0817599 0.046618 -0.117204 0.0742994 
0.0261482 -0.101765 0.0808265 0.0267649 -0.108996 0.085978 0.0267906 -0.113414 0.0899096 
0.0268504 -0.117668 0.0937407 0.0274311 -0.119422 0.0960305 0.0281311 -0.120993 0.0981156 
0.0298801 -0.120955 0.0983988 0.0317816 -0.120822 0.0983498 0.0345978 -0.120121 0.0963075 
0.0374875 -0.119466 0.0937969 0.0407042 -0.11901 0.089205 0.0437936 -0.118721 0.0840238 
0.0464435 -0.11901 0.0768067 0.0191269 -0.0954568 0.0814998 0.0210121 -0.101971 0.0867398 
0.0222887 -0.106328 0.0908111 0.0235844 -0.110561 0.0947814 0.025174 -0.112901 0.0972033 
0.0268393 -0.1151 0.0994182 0.0291706 -0.116052 0.0998116 0.0315894 -0.116925 0.0998736 
0.0345336 -0.117324 0.0979463 0.0374878 -0.117757 0.0955624 0.0404866 -0.118334 0.0911485 
0.0433165 -0.119057 0.0861776 0.0455633 -0.120281 0.0792829 0.0131146 -0.0907802 0.0819273 
0.0158702 -0.0965652 0.0871369 0.0180121 -0.100728 0.0912395 0.0201629 -0.104799 0.0952428 
0.0224518 -0.107447 0.0977228 0.0247864 -0.109988 0.0999979 0.0275221 -0.111587 0.100471 
0.0302986 -0.113126 0.100619 0.0333199 -0.114308 0.0988195 0.0363022 -0.115521 0.0965828 
0.0391112 -0.116872 0.0924019 0.0417172 -0.11835 0.0877047 0.0436222 -0.120269 0.0812235 
0.00750604 -0.086756 0.0822565 0.0109728 -0.0918063 0.087388 0.0138256 -0.0957228 0.0914786 
0.0166792 -0.0995738 0.0954724 0.0195437 -0.102419 0.0979809 0.022429 -0.105189 0.100288 
0.025498 -0.107298 0.100828 0.0285683 -0.109367 0.101053 0.0316464 -0.111205 0.0993864 
0.0346423 -0.113075 0.0973051 0.0372726 -0.115094 0.0933794 0.0396689 -0.117224 0.088981 
0.0412568 -0.119744 0.0829499 0.116171 -0.160412 0.0664191 0.088882 -0.16893 0.0534634 
0.0502984 -0.166678 0.0461634 0.0124121 -0.163616 0.0394901 -0.0147813 -0.148155 0.0424243 
-0.0394803 -0.132671 0.0455515 -0.0422281 -0.116997 0.0503764 -0.0429419 -0.102362 0.0546578 
-0.031451 -0.0939637 0.0556785 -0.0197754 -0.0865689 0.0561153 -0.00727932 -0.0836319 0.0539564 
0.00422793 -0.0811376 0.0515033 0.0123191 -0.0801726 0.0480334 0.106632 -0.171881 0.063157 
0.0832921 -0.183875 0.0550246 0.0519075 -0.183844 0.050635 0.0210505 -0.18291 0.0466574 
-0.00171565 -0.168132 0.0489961 -0.0225749 -0.15311 0.0514846 -0.026654 -0.135945 0.0552917 
-0.0289848 -0.119649 0.0586925 -0.0208252 -0.108563 0.0596542 -0.0122736 -0.0985069 0.0600679 
-0.00197979 -0.0930303 0.0580452 0.0076511 -0.0881518 0.055616 0.0149918 -0.085339 0.0517826 
0.0949297 -0.170616 0.0632569 0.0759099 -0.183029 0.0591696 0.0517152 -0.184192 0.057125 
0.0279069 -0.184546 0.0553167 0.0100235 -0.172495 0.0571309 -0.00648195 -0.16008 0.059023 
-0.0108613 -0.144457 0.0615999 -0.0138439 -0.129421 0.0638655 -0.00844633 -0.117908 0.0642627 
-0.00256621 -0.107279 0.0641707 0.00545854 -0.100578 0.0619045 0.013092 -0.0944992 0.0591743 
0.0193736 -0.0905732 0.0548411 0.0838633 -0.163573 0.063913 0.0687942 -0.175552 0.0628396 
0.0505186 -0.177572 0.0625897 0.0325229 -0.178904 0.0624535 0.0188185 -0.169699 0.0640606 
0.00609403 -0.160082 0.0656803 0.00199221 -0.146851 0.0674106 -0.00102088 -0.133973 0.0688778 
0.0024986 -0.123208 0.0687675 0.00651213 -0.113146 0.0682041 0.0127214 -0.106213 0.0656269 
0.0187217 -0.0998625 0.062543 0.0239995 -0.0955254 0.0577082 0.073315 -0.15182 0.0650223 
0.0618957 -0.162672 0.0661226 0.0485038 -0.165274 0.0672189 0.0353135 -0.167332 0.0683497 
0.0252148 -0.161068 0.0700084 0.0158043 -0.154407 0.0716198 0.0124507 -0.144262 0.0728157 
0.00991351 -0.134272 0.0737592 0.0122751 -0.12521 0.0731879 0.0150779 -0.116646 0.0721809 
0.0198414 -0.11029 0.0692377 0.0245052 -0.104424 0.065757 0.0288244 -0.100248 0.0604194 
0.0636489 -0.139856 0.0662277 0.0553357 -0.149723 0.0688525 0.0457632 -0.152819 0.0709389 
0.0363348 -0.155487 0.0730082 0.0291156 -0.151608 0.0748171 0.0223786 -0.147369 0.076534 
0.0198849 -0.139958 0.0774407 0.0179958 -0.132577 0.0780915 0.0197346 -0.125368 0.0772069 
0.0218417 -0.118495 0.0758918 0.0255852 -0.113115 0.0726636 0.0292799 -0.108132 0.0688768 
0.0328055 -0.104522 0.0631607 0.0545911 -0.127744 0.0674995 0.0490091 -0.136726 0.0712011 
0.0425221 -0.140255 0.0740318 0.0361359 -0.143454 0.0768132 0.0312955 -0.141578 0.0788405 
0.0267902 -0.139392 0.0807411 0.0252335 -0.134473 0.0815276 0.0241113 -0.129506 0.0820452 
0.0255963 -0.124253 0.0809491 0.0273627 -0.119206 0.0794193 0.0303801 -0.115076 0.0759619 
0.0333588 -0.111252 0.0719317 0.0362046 -0.108488 0.0659228 0.0462211 -0.117412 0.0688668 
0.0428771 -0.125677 0.0732631 0.0387684 -0.129533 0.0766005 0.0347284 -0.133129 0.0798692 
0.0317409 -0.132748 0.0820842 0.0289858 -0.132103 0.0841496 0.0282766 -0.129144 0.0848991 
0.0278752 -0.126101 0.085369 0.0293202 -0.122554 0.0841608 0.030966 -0.119129 0.0825179 
0.0335038 -0.116249 0.078943 0.0359886 -0.113608 0.0747952 0.0382901 -0.11179 0.0686689 
0.0382503 -0.108112 0.0702896 0.036858 -0.115758 0.0751587 0.0347171 -0.119878 0.0788649 
0.0326191 -0.123796 0.0824902 0.031179 -0.124614 0.0848752 0.0298947 -0.125214 0.0870945 
0.0299811 -0.123907 0.0878553 0.0302736 -0.122502 0.0883271 0.0318029 -0.120515 0.0870645 
0.0334557 -0.118595 0.0853675 0.0356572 -0.116966 0.0817398 0.0377767 -0.11552 0.0775477 
0.039613 -0.114705 0.0714058 0.0309728 -0.100891 0.0716687 0.031099 -0.107941 0.0767662 
0.0304418 -0.112175 0.0806696 0.0298085 -0.116249 0.0844861 0.0295417 -0.117886 0.0869698 
0.029377 -0.119346 0.0892794 0.0301106 -0.119248 0.0900571 0.0309759 -0.119056 0.090543 
0.0326311 -0.118302 0.0892771 0.0343457 -0.117583 0.0875848 0.0363238 -0.117021 0.0839971 
0.0381869 -0.116602 0.0798667 0.0396525 -0.116681 0.0738615 0.0240314 -0.0946776 0.0730267 
0.0254661 -0.101142 0.078234 0.0260579 -0.105417 0.0822514 0.0266578 -0.109568 0.0861788 
0.027383 -0.111841 0.0887267 0.0281677 -0.113973 0.0910959 0.0294766 -0.114871 0.0918933 
0.0308559 -0.115686 0.092399 0.0326572 -0.116004 0.0911546 0.0344601 -0.11634 0.0894955 
0.0362696 -0.116754 0.0859928 0.037929 -0.117282 0.0819755 0.0390698 -0.118201 0.076181 
0.0179747 -0.0902568 0.0740385 0.0203196 -0.0960817 0.0792005 0.0217926 -0.100238 0.0832106 
0.023263 -0.1043 0.0871309 0.0246947 -0.106924 0.0896743 0.0261567 -0.109439 0.0920397 
0.0278862 -0.110994 0.0928393 0.0296424 -0.112482 0.0933534 0.0315591 -0.113566 0.0921549 
0.0334336 -0.114662 0.0905599 0.0351203 -0.115811 0.0872023 0.0366286 -0.117051 0.0833656 
0.0375204 -0.118608 0.0778739 0.0122718 -0.0865531 0.0749118 0.0153678 -0.0917165 0.0799665 
0.0175747 -0.0956906 0.0839208 0.0197704 -0.0995966 0.0877868 0.0217945 -0.102458 0.0902982 
0.0238251 -0.10524 0.0926344 0.0259131 -0.107317 0.0934292 0.0279914 -0.109344 0.0939472 
0.0300113 -0.111073 0.0928043 0.0319508 -0.112811 0.0912857 0.0335331 -0.114597 0.0880973 
0.0349113 -0.116456 0.0844681 0.0355842 -0.11857 0.0793163 0.10333 -0.165118 0.0420149 
0.076909 -0.168116 0.0265814 0.0435153 -0.162475 0.0185754 0.0107463 -0.156264 0.0113309 
-0.0124433 -0.141301 0.0157622 -0.0335792 -0.12636 0.0205279 -0.0366419 -0.11161 0.0282352 
-0.0379197 -0.0977518 0.0354062 -0.028488 -0.0892393 0.0393594 -0.0187619 -0.0817002 0.0426069 
-0.00772764 -0.0784876 0.0427174 0.00251459 -0.0758455 0.0423797 0.0100206 -0.0751742 0.0404936 
0.0984603 -0.171973 0.0413662 0.0757163 -0.178886 0.0313625 0.0478331 -0.175933 0.0265148 
0.0204328 -0.172308 0.0221862 0.000436026 -0.15838 0.0258177 -0.0179551 -0.144277 0.0297109 
-0.0222167 -0.128634 0.035907 -0.0249405 -0.11372 0.0417117 -0.0184378 -0.103178 0.045168 
-0.0115036 -0.0935908 0.0479955 -0.00265143 -0.0882516 0.048028 0.00567752 -0.0835733 0.0475467 
0.0121989 -0.0811781 0.0452903 0.0907115 -0.168889 0.0442032 0.0719505 -0.177254 0.0387703 
0.0498387 -0.176117 0.0364593 0.0280877 -0.174348 0.0344666 0.0118706 -0.162891 0.0373543 
-0.00315934 -0.151146 0.0404088 -0.00774266 -0.136875 0.0449306 -0.0110884 -0.123102 0.0491639 
-0.00700884 -0.112317 0.0516662 -0.00245047 -0.102348 0.053633 0.00423586 -0.0960001 0.0532192 
0.0106176 -0.0903076 0.0522743 0.0159471 -0.0868774 0.0494949 0.0826338 -0.161058 0.047276 
0.0675488 -0.169935 0.0452837 0.0503491 -0.170186 0.0449144 0.0334155 -0.169879 0.0447207 
0.0205628 -0.161011 0.0472184 0.00857294 -0.151807 0.0497997 0.00417579 -0.139644 0.0531164 
0.000749484 -0.127783 0.0561988 0.00314839 -0.117745 0.0578756 0.00601383 -0.108356 0.0590793 
0.0109528 -0.10186 0.0581807 0.015732 -0.095961 0.0567405 0.0199594 -0.092127 0.0534296 
0.0742881 -0.149357 0.0505409 0.0626288 -0.157983 0.0510684 0.0496412 -0.159273 0.052156 
0.0368471 -0.160105 0.0533238 0.0270204 -0.153925 0.0557196 0.0178091 -0.147411 0.0581254 
0.0140119 -0.137953 0.0606195 0.0109462 -0.128634 0.0628938 0.0122694 -0.120147 0.0638496 
0.0139983 -0.112126 0.06437 0.0175308 -0.10618 0.0629549 0.0209884 -0.100734 0.0609935 
0.0241871 -0.0970102 0.0571445 0.066182 -0.13752 0.0534878 0.0574746 -0.145817 0.0557963 
0.0478665 -0.14795 0.0579477 0.0383972 -0.149713 0.0601159 0.0310556 -0.14578 0.0625436 
0.0241498 -0.141535 0.0649263 0.0210797 -0.134543 0.0669142 0.0185518 -0.127582 0.0686812 
0.0192774 -0.1208 0.0691229 0.0203343 -0.114338 0.0691482 0.0228636 -0.1093 0.0673222 
0.0253548 -0.104663 0.0649464 0.0277148 -0.101415 0.0606712 0.0582412 -0.125589 0.0562155 
0.052159 -0.133502 0.0597956 0.0453562 -0.136346 0.0627393 0.0386498 -0.138893 0.065659 
0.0334201 -0.136904 0.0682108 0.0284939 -0.134639 0.0706756 0.0262384 -0.129948 0.0723755 
0.0243705 -0.125217 0.0738426 0.0248284 -0.120247 0.073913 0.0255335 -0.115476 0.073573 
0.0273376 -0.111591 0.0714087 0.0291076 -0.108012 0.0686922 0.0307598 -0.105491 0.0640681 
0.050589 -0.115401 0.0587301 0.046687 -0.122961 0.0631293 0.0420929 -0.126344 0.0665966 
0.0375631 -0.129489 0.0700144 0.0340176 -0.128991 0.0726734 0.0306814 -0.128254 0.0752174 
0.0291878 -0.125416 0.0767495 0.0279654 -0.122503 0.0780385 0.0283702 -0.119136 0.0778687 
0.0289457 -0.115887 0.0772927 0.0302801 -0.113162 0.0749119 0.0315649 -0.110667 0.0719846 
0.0326779 -0.10897 0.0671692 0.0431043 -0.106224 0.061121 0.0411242 -0.113449 0.0660766 
0.0383924 -0.117273 0.0699114 0.0356987 -0.120907 0.0736802 0.033589 -0.121638 0.0764365 
0.0316167 -0.122167 0.079058 0.0308545 -0.120922 0.0804921 0.0302692 -0.119586 0.0816736 
0.0307453 -0.117702 0.0813397 0.0313201 -0.115877 0.0806031 0.0323334 -0.114315 0.0780764 
0.03327 -0.11292 0.0750136 0.0339415 -0.112102 0.0700985 0.0360486 -0.0991817 0.0632921 
0.0355882 -0.106016 0.0685055 0.0342898 -0.11009 0.0725115 0.0330099 -0.114012 0.0764426 
0.032015 -0.115604 0.0792257 0.0311067 -0.117029 0.0818632 0.030961 -0.116972 0.0832183 
0.0309232 -0.116823 0.0843177 0.031532 -0.116121 0.0838822 0.0321806 -0.115445 0.0830531 
0.0330063 -0.11488 0.080474 0.0337261 -0.114437 0.0773795 0.0340795 -0.114413 0.0725042 
0.0292009 -0.0931747 0.0653565 0.0300654 -0.0995927 0.0706831 0.0299922 -0.103823 0.074765 
0.0299214 -0.107934 0.078767 0.0298856 -0.110211 0.0815428 0.0298958 -0.112351 0.0841664 
0.0303111 -0.113286 0.0854518 0.0307772 -0.114135 0.0864811 0.0315484 -0.11447 0.0859745 
0.032307 -0.114809 0.0850859 0.03301 -0.115161 0.0824997 0.0335765 -0.115598 0.0794238 
0.0336717 -0.116326 0.074656 0.0230722 -0.0890844 0.066983 0.0248778 -0.0949759 0.072234 
0.0256899 -0.0991714 0.076258 0.0264933 -0.103273 0.0802009 0.0271612 -0.105943 0.0829015 
0.0278474 -0.108502 0.0854494 0.0286934 -0.110097 0.0866534 0.0295501 -0.111619 0.0876069 
0.0304717 -0.112699 0.0870575 0.0313419 -0.113772 0.0861438 0.031984 -0.114817 0.0836108 
0.0324655 -0.115921 0.0806207 0.0323918 -0.117228 0.0760513 0.017231 -0.0857609 0.0684343 
0.0198243 -0.0910819 0.0735342 0.0213858 -0.0951654 0.0774467 0.0229294 -0.0991791 0.0812787 
0.0241989 -0.102123 0.0838769 0.0254639 -0.104984 0.0863242 0.0266885 -0.107108 0.0874421 
0.0278906 -0.109173 0.0883175 0.0289578 -0.11088 0.0877368 0.0299402 -0.112576 0.0868117 
0.0305462 -0.114223 0.0843561 0.0309698 -0.115909 0.0814787 0.0307631 -0.117726 0.0771439 
0.0887071 -0.16819 0.0247913 0.0637146 -0.165263 0.0096621 0.0362122 -0.156026 0.00211366 
0.0092636 -0.146462 -0.00469871 -0.00919437 -0.131868 -0.000224887 -0.0260633 -0.117383 0.00466614 
-0.028949 -0.10385 0.0132284 -0.030372 -0.091078 0.0213757 -0.0230185 -0.0828688 0.0270327 
-0.0153125 -0.0755677 0.0319896 -0.00603929 -0.0723032 0.033835 0.00264168 -0.0696869 0.0351457 
0.00927675 -0.0693099 0.0346095 0.0888488 -0.170143 0.0249386 0.067159 -0.171645 0.0149815 
0.0434223 -0.165626 0.0104819 0.0201224 -0.159171 0.00650421 0.00351946 -0.14603 0.0105289 
-0.0118055 -0.132815 0.0148784 -0.0158844 -0.118955 0.0220859 -0.0186898 -0.105698 0.0289841 
-0.0138542 -0.096063 0.034027 -0.00858343 -0.0872811 0.0384484 -0.00137878 -0.0822902 0.040107 
0.0054443 -0.0779811 0.0411937 0.0109492 -0.0760277 0.0403043 0.0854086 -0.165099 0.0288611 
0.0672647 -0.169077 0.0233383 0.0477741 -0.165509 0.021311 0.0286173 -0.161497 0.0196204 
0.0145785 -0.15067 0.0230922 0.00151315 -0.139656 0.0267837 -0.00298634 -0.127009 0.032408 
-0.00644671 -0.114778 0.0378011 -0.00367226 -0.105042 0.0418061 -0.000448191 -0.0960279 0.0452824 
0.00477421 -0.0902256 0.0464086 0.00978043 -0.0850749 0.046966 0.0140399 -0.0821752 0.0455584 
0.0806438 -0.156534 0.0331641 0.0658084 -0.161992 0.0310599 0.0501135 -0.160361 0.0309494 
0.0346698 -0.158314 0.0310395 0.0230792 -0.149871 0.0342046 0.0122163 -0.141185 0.0374988 
0.00775774 -0.130346 0.0419293 0.00412403 -0.119765 0.0461684 0.00543951 -0.110727 0.049259 
0.00717615 -0.102267 0.0518854 0.0107846 -0.0963764 0.0524489 0.0142844 -0.09107 0.0524494 
0.0174086 -0.0877824 0.0505051 0.0748 -0.1451 0.037777 0.0630796 -0.151226 0.0382641 
0.0508131 -0.151114 0.0396177 0.0387322 -0.150641 0.0410757 0.0294952 -0.144643 0.0441347 
0.0207883 -0.138385 0.0472441 0.0167467 -0.129838 0.050798 0.0133321 -0.121415 0.0541695 
0.0136793 -0.113728 0.056446 0.0143842 -0.106463 0.0583 0.0166789 -0.101073 0.0582763 
0.0189251 -0.0961699 0.0576974 0.0210039 -0.0929494 0.0552012 0.0684889 -0.13364 0.0419606 
0.0594918 -0.140143 0.0443151 0.0500763 -0.14125 0.0467405 0.0407954 -0.14205 0.0492048 
0.0335783 -0.138157 0.052265 0.0267433 -0.134009 0.0553166 0.02327 -0.127624 0.0582932 
0.0202633 -0.12127 0.0610835 0.0200559 -0.1151 0.0627556 0.0201337 -0.109225 0.0640279 
0.0214788 -0.104655 0.0635234 0.0227984 -0.100476 0.0624693 0.0240295 -0.0976485 0.0595167 
0.0618557 -0.122163 0.0458481 0.0553117 -0.128843 0.0495709 0.0483488 -0.130961 0.0527976 
0.0414799 -0.132826 0.0560188 0.0360526 -0.130804 0.0591541 0.0308934 -0.128548 0.0622354 
0.0280929 -0.124233 0.0648412 0.0256244 -0.119886 0.0672478 0.0251477 -0.115349 0.0684601 
0.0248774 -0.110997 0.0692822 0.0255241 -0.107468 0.0683704 0.0261423 -0.104235 0.0669129 
0.0266621 -0.102025 0.0635697 0.0550493 -0.112336 0.0493593 0.050576 -0.119078 0.0539679 
0.0456 -0.121972 0.0577102 0.0406869 -0.124655 0.0614184 0.0367365 -0.124113 0.0646034 
0.0329711 -0.123362 0.0677037 0.0308327 -0.120766 0.0700579 0.0289232 -0.118104 0.0722022 
0.0283864 -0.115043 0.073087 0.027985 -0.11209 0.0735883 0.0281856 -0.10962 0.0723852 
0.02834 -0.107368 0.0706449 0.0283346 -0.10587 0.0670488 0.0481423 -0.103468 0.0526522 
0.0455177 -0.110206 0.0578663 0.0422583 -0.113738 0.0619583 0.0390358 -0.117097 0.0659968 
0.0363808 -0.117808 0.0692168 0.0338454 -0.118335 0.0723298 0.032363 -0.117255 0.0745016 
0.0310245 -0.11609 0.0764539 0.030549 -0.114415 0.0770883 0.0301427 -0.112789 0.077344 
0.0300437 -0.111388 0.0759168 0.0298721 -0.110137 0.0739638 0.0294496 -0.109407 0.0701945 
0.0413466 -0.0967328 0.0556064 0.0402147 -0.103323 0.0610861 0.038312 -0.107257 0.0653103 
0.0364267 -0.111049 0.0694704 0.0348091 -0.112662 0.0726465 0.0332642 -0.114117 0.0757032 
0.0323597 -0.114191 0.077709 0.0315364 -0.114175 0.0794915 0.0312001 -0.113621 0.0799342 
0.0308796 -0.113082 0.0800078 0.0306291 -0.112606 0.0784413 0.0302788 -0.11223 0.0763693 
0.0295838 -0.112199 0.0725516 0.0346048 -0.0910314 0.0583965 0.0347932 -0.0974058 0.0639767 
0.0340727 -0.101627 0.068228 0.0333531 -0.105734 0.0724084 0.0326479 -0.108078 0.0755024 
0.0319774 -0.110291 0.0784692 0.0316129 -0.111343 0.0803168 0.0312777 -0.112309 0.0819403 
0.0311184 -0.112748 0.0822199 0.0309277 -0.113177 0.0821423 0.0305974 -0.113557 0.0804775 
0.0301398 -0.113994 0.078332 0.0292425 -0.114631 0.0745262 0.0283797 -0.0873378 0.0606646 
0.0295322 -0.0933194 0.0661254 0.0296907 -0.0975959 0.0702573 0.0298388 -0.10178 0.0743163 
0.0298258 -0.104555 0.0772572 0.0298214 -0.107222 0.0800692 0.0298925 -0.108933 0.0817461 
0.0299568 -0.110565 0.0832038 0.0299799 -0.111722 0.0833463 0.0299375 -0.112855 0.0831491 
0.0296036 -0.113883 0.081442 0.0291209 -0.11494 0.0792861 0.0281243 -0.116097 0.0755794 
0.0223613 -0.0844473 0.0627238 0.0243354 -0.0899655 0.0679772 0.0252518 -0.0942042 0.0719312 
0.0261482 -0.0983722 0.0758121 0.0267394 -0.101457 0.0785716 0.0273176 -0.104456 0.0812027 
0.0277826 -0.106698 0.082704 0.0282109 -0.108871 0.0839932 0.0284188 -0.110633 0.084009 
0.0285321 -0.112365 0.0837048 0.028225 -0.113959 0.0819779 0.0277501 -0.115558 0.0798368 
0.0266953 -0.117176 0.0762641 0.0764401 -0.17143 0.0116954 0.0528534 -0.163475 -0.00147757 
0.0302407 -0.151055 -0.00771015 0.00813168 -0.13849 -0.0132966 -0.00625359 -0.123684 -0.008976 
-0.0194116 -0.109078 -0.00422601 -0.0217698 -0.0962205 0.00430252 -0.0229624 -0.0840548 0.0125374 
-0.0171612 -0.0760396 0.0190107 -0.011016 -0.0688897 0.0248455 -0.00334177 -0.0655856 0.0278425 
0.00388229 -0.0629882 0.03027 0.00955138 -0.0628326 0.03073 0.0808585 -0.168635 0.0123884 
0.0602355 -0.165578 0.00374232 0.0400617 -0.156868 0.000234415 0.0202911 -0.1479 -0.00280044 
0.00670077 -0.134982 0.00141788 -0.00587608 -0.12209 0.0059721 -0.00953496 -0.109422 0.0134821 
-0.0121666 -0.0972897 0.0207661 -0.00863432 -0.0883663 0.0266937 -0.00470718 -0.0802237 0.0320475 
0.000975135 -0.075551 0.0348506 0.00637454 -0.0715753 0.037059 0.0107966 -0.0700078 0.0372128 
0.0811601 -0.161315 0.0168147 0.0636794 -0.161508 0.0121233 0.0465442 -0.155775 0.010854 
0.0297226 -0.149745 0.00990246 0.0177066 -0.13916 0.013822 0.0064841 -0.128484 0.0179769 
0.00224301 -0.117018 0.0242039 -0.00114886 -0.105923 0.0302558 0.000554752 -0.0970577 0.0352569 
0.00265011 -0.0888475 0.0397611 0.00648658 -0.0835495 0.0420568 0.0101652 -0.0788992 0.0437645 
0.0132985 -0.0764863 0.0434412 0.0793691 -0.151707 0.021803 0.0648355 -0.154132 0.0202385 
0.0505729 -0.150798 0.0207326 0.0365506 -0.147163 0.0214265 0.026211 -0.138907 0.0251847 
0.0164797 -0.130491 0.0290921 0.0121015 -0.120677 0.0343126 0.00840382 -0.111097 0.0393822 
0.00878975 -0.102925 0.0435464 0.00953167 -0.0952772 0.0472681 0.0118558 -0.0899569 0.0490231 
0.0141006 -0.0852093 0.0501977 0.0160715 -0.08244 0.0493673 0.075873 -0.140236 0.027249 
0.0641275 -0.144063 0.0281371 0.0526022 -0.142657 0.0300073 0.0412572 -0.140974 0.03199 
0.032677 -0.135043 0.0356989 0.0245486 -0.128922 0.0394823 0.0203959 -0.121127 0.0439217 
0.0167628 -0.113452 0.0482127 0.0162473 -0.106492 0.0516129 0.0160256 -0.099919 0.0546066 
0.0171091 -0.0950678 0.055794 0.018154 -0.0906934 0.056409 0.0190655 -0.0879659 0.0550471 
0.0713008 -0.128984 0.0323007 0.0620171 -0.133784 0.0349927 0.0528543 -0.133933 0.0378745 
0.0438247 -0.133834 0.0408076 0.03684 -0.129946 0.0445284 0.0301857 -0.125859 0.0482673 
0.0264399 -0.120016 0.0521647 0.0230796 -0.11421 0.055907 0.0220318 -0.108627 0.0587188 
0.0212089 -0.103318 0.0611442 0.0213858 -0.0992216 0.0618524 0.0215355 -0.0955068 0.0619934 
0.0215912 -0.0931103 0.0601749 0.0659866 -0.117882 0.0370805 0.0589395 -0.123361 0.0411291 
0.0518806 -0.124807 0.0447711 0.044917 -0.126039 0.0484212 0.0394147 -0.123999 0.0521963 
0.0341458 -0.121764 0.0559454 0.0309321 -0.117826 0.0594656 0.0279881 -0.113866 0.0628179 
0.0266623 -0.109776 0.0651624 0.0254883 -0.10586 0.0671296 0.0249891 -0.102715 0.0674196 
0.0244538 -0.0998578 0.0671454 0.0237938 -0.0979917 0.0649223 0.0600426 -0.108403 0.0414354 
0.0549132 -0.114341 0.0463612 0.0496111 -0.116796 0.0504728 0.0443747 -0.119069 0.0545641 
0.0401457 -0.118528 0.0583441 0.0360777 -0.117807 0.062068 0.0334267 -0.115495 0.0652983 
0.030955 -0.113126 0.0683502 0.0295596 -0.110415 0.070331 0.0282508 -0.107805 0.0719413 
0.027327 -0.10564 0.0719042 0.0263473 -0.103681 0.0713109 0.0251747 -0.102435 0.0687966 
0.0537327 -0.0998651 0.0455436 0.050336 -0.106135 0.0510682 0.0465891 -0.109433 0.0554808 
0.0428832 -0.112576 0.0598531 0.0398061 -0.113334 0.0636093 0.0368317 -0.113929 0.0672874 
0.0347612 -0.113082 0.0702785 0.0327945 -0.112157 0.073082 0.0314504 -0.110759 0.0747594 
0.0301324 -0.109404 0.0760715 0.0289301 -0.108234 0.0757602 0.0276458 -0.107198 0.0749037 
0.0260783 -0.106624 0.072164 0.0471792 -0.0934752 0.0492537 0.0452192 -0.0998568 0.0550106 
0.042739 -0.103719 0.0594901 0.0402807 -0.107451 0.0639178 0.0381591 -0.109165 0.0675533 
0.0360975 -0.110734 0.0710979 0.0345648 -0.111025 0.0738436 0.03308 -0.111229 0.0763982 
0.031882 -0.110911 0.0778059 0.0306622 -0.110595 0.0788587 0.0293452 -0.110294 0.0783338 
0.0279209 -0.11007 0.0772849 0.026126 -0.110116 0.0744255 0.0405076 -0.0881267 0.0527708 
0.0398408 -0.0945137 0.0585823 0.0384874 -0.0988052 0.0630152 0.0371396 -0.102987 0.067389 
0.0358781 -0.105492 0.0708567 0.0346416 -0.10787 0.0742253 0.0336261 -0.109141 0.0767226 
0.032612 -0.110322 0.0790281 0.031606 -0.110969 0.0801825 0.0305365 -0.111589 0.0809946 
0.0291842 -0.112095 0.0802857 0.0276998 -0.11263 0.0790786 0.0257586 -0.113269 0.0761508 
0.0341146 -0.0848922 0.0556907 0.0344279 -0.0910344 0.061314 0.0339403 -0.0954755 0.0655446 
0.0334467 -0.099827 0.0697134 0.0328606 -0.102803 0.0729348 0.0322753 -0.105673 0.0760547 
0.0316973 -0.107604 0.0782807 0.0310889 -0.109452 0.0803192 0.0302975 -0.110794 0.0812326 
0.0294135 -0.112095 0.0818222 0.0281177 -0.113212 0.080972 0.0266711 -0.114325 0.079658 
0.0247035 -0.115429 0.0767415 0.0278331 -0.0825032 0.0583716 0.0290011 -0.0883006 0.0637097 
0.0292751 -0.0927797 0.0676757 0.0295332 -0.097188 0.071579 0.0295486 -0.100509 0.0745229 
0.0295448 -0.103743 0.0773648 0.0293725 -0.106207 0.0793103 0.0291437 -0.108596 0.0810746 
0.028576 -0.110527 0.0817522 0.0278917 -0.112406 0.0821264 0.0266891 -0.114055 0.0811521 
0.0253195 -0.115675 0.0797516 0.0233733 -0.117191 0.0768782 0.0659399 -0.174796 0.00169521 
0.0437419 -0.162486 -0.00828251 0.0252677 -0.147192 -0.0125555 0.0072629 -0.131889 -0.0163207 
-0.00354395 -0.116437 -0.0123001 -0.013408 -0.101276 -0.00789094 -0.0149759 -0.0886884 -6.27085e-05 
-0.0156565 -0.0767697 0.00759348 -0.011013 -0.0688666 0.0142174 -0.00608414 -0.0618026 0.0203064 
0.000112603 -0.058468 0.0240175 0.00595804 -0.0558845 0.0271629 0.0105899 -0.0558957 0.0283539 
0.0740841 -0.167368 0.00274609 0.0545372 -0.160392 -0.00364053 0.0374888 -0.149272 -0.00567402 
0.020819 -0.138028 -0.00732205 0.00995549 -0.124911 -0.00305987 -0.000111825 -0.111917 0.00151035 
-0.00317265 -0.1 0.00879133 -0.00543886 -0.0885918 0.0159302 -0.00293731 -0.080233 0.0222161 
-0.000113905 -0.0726055 0.0280062 0.00414 -0.0682284 0.0315926 0.00817739 -0.0645593 0.034588 
0.0114668 -0.063336 0.0355422 0.0777026 -0.157535 0.00724009 0.0609195 -0.154394 0.00407115 
0.0459404 -0.146696 0.0039156 0.0312595 -0.138817 0.00403069 0.0211499 -0.128184 0.00829563 
0.0116789 -0.117552 0.012784 0.00782713 -0.106933 0.0192387 0.00464109 -0.0966695 0.0255737 
0.00544958 -0.0885423 0.0311909 0.00657041 -0.0810217 0.0363618 0.00907945 -0.0761973 0.039549 
0.0114664 -0.0720163 0.0421432 0.0134314 -0.0700576 0.0426886 0.0786308 -0.146653 0.0125049 
0.0644381 -0.146334 0.0119688 0.0515536 -0.141431 0.0133269 0.0389011 -0.136324 0.0148647 
0.0298043 -0.128073 0.0191603 0.0212081 -0.119744 0.0236061 0.0170165 -0.110729 0.0293737 
0.0133625 -0.101943 0.0350292 0.0129343 -0.0945357 0.0400119 0.0127821 -0.0876117 0.0445833 
0.0138564 -0.0828354 0.0473268 0.0148646 -0.0786213 0.0494755 0.0156447 -0.0763492 0.0495697 
0.0773668 -0.134917 0.0183978 0.0656234 -0.136594 0.0200181 0.0548542 -0.133977 0.0225928 
0.0442623 -0.131155 0.0252761 0.0363891 -0.125205 0.029625 0.0288945 -0.119132 0.0340601 
0.0247307 -0.111969 0.0392543 0.020977 -0.104932 0.0443316 0.019684 -0.0986422 0.0487077 
0.0186086 -0.0927137 0.0526957 0.0185008 -0.0883892 0.054959 0.0183518 -0.0845323 0.0566263 
0.0180606 -0.0822905 0.0562347 0.0744915 -0.123745 0.0240412 0.0649236 -0.12691 0.0272895 
0.0560584 -0.126153 0.0307642 0.0473275 -0.125204 0.0342957 0.0406558 -0.121295 0.0386985 
0.0342649 -0.117239 0.0431385 0.0303445 -0.11189 0.0479056 0.0267244 -0.106589 0.0525465 
0.0249056 -0.101574 0.0564301 0.0232409 -0.0968164 0.0599381 0.0222616 -0.0931973 0.0617773 
0.0212429 -0.0899512 0.0630182 0.0200881 -0.0879936 0.0621927 0.0705049 -0.112962 0.0295127 
0.0629237 -0.117263 0.0340246 0.0558168 -0.118076 0.0381808 0.0488093 -0.118714 0.0423555 
0.0433238 -0.116665 0.0468126 0.0380381 -0.114462 0.0512681 0.0345098 -0.1109 0.0557092 
0.0311841 -0.107328 0.0600116 0.0290734 -0.103697 0.0634813 0.0270497 -0.10023 0.0665806 
0.0254131 -0.0974912 0.0680342 0.0237229 -0.0950309 0.0688868 0.0218477 -0.0935324 0.0676631 
0.0654355 -0.103818 0.0345965 0.0595865 -0.108962 0.0399205 0.0540001 -0.111018 0.0444721 
0.0484855 -0.112917 0.049016 0.0440725 -0.112413 0.0534427 0.039797 -0.111756 0.0578408 
0.0367323 -0.109758 0.0619878 0.0337923 -0.107714 0.0659864 0.0316006 -0.105388 0.0690944 
0.0294365 -0.103154 0.0718372 0.0273953 -0.101332 0.0729573 0.0252789 -0.0997036 0.0734812 
0.0229023 -0.0987481 0.0719457 0.0597374 -0.0956264 0.0394553 0.0554729 -0.101442 0.0453292 
0.0512687 -0.104552 0.0501099 0.0471133 -0.107523 0.0548641 0.0437066 -0.108379 0.059211 
0.0403864 -0.10909 0.0635095 0.0378267 -0.108528 0.0673809 0.0353255 -0.107895 0.0710959 
0.0331752 -0.106828 0.0738725 0.0309975 -0.105795 0.0762891 0.0286986 -0.104909 0.0771058 
0.0262983 -0.10414 0.0773357 0.0235474 -0.103776 0.0755386 0.0534129 -0.089611 0.0439008 
0.0505072 -0.0958099 0.0499432 0.0474696 -0.0996527 0.0547055 0.0444627 -0.103375 0.05943 
0.0419259 -0.105252 0.0635746 0.0394375 -0.106996 0.0676588 0.0373747 -0.10757 0.0712114 