# vtk DataFile Version 2.0
vtk output
ASCII
DATASET RECTILINEAR_GRID
DIMENSIONS 13 13 13
X_COORDINATES 13 float
5 5.20833 5.41667 5.625 5.83333 6.04167 6.25 6.45833 6.66667 
6.875 7.08333 7.29167 7.5 
Y_COORDINATES 13 float
2.5 2.70833 2.91667 3.125 3.33333 3.54167 3.75 3.95833 4.16667 
4.375 4.58333 4.79167 5 
Z_COORDINATES 13 float
5 5.20833 5.41667 5.625 5.83333 6.04167 6.25 6.45833 6.66667 
6.875 7.08333 7.29167 7.5 
POINT_DATA 2197
VECTORS grad float
0.0528353 0.00721554 -0.0889154 0.05749 0.00695209 -0.0985403 0.0632456 0.00625423 -0.109447 
0.0698937 0.00466528 -0.122049 0.0772689 0.00235027 -0.136031 0.0841753 -0.00143535 -0.151743 
0.0907584 -0.00623518 -0.168648 0.0938202 -0.0127103 -0.186313 0.0948374 -0.0201583 -0.20442 
0.0883124 -0.0279218 -0.220295 0.0781307 -0.0358384 -0.235088 0.0586557 -0.0403783 -0.242443 
0.0354634 -0.0435676 -0.246823 0.0523347 0.00441861 -0.0867309 0.0564189 0.00293261 -0.0949691 
0.0614496 0.000895311 -0.104149 0.0671482 -0.00209048 -0.114479 0.0733911 -0.0058491 -0.125748 
0.0790369 -0.0109529 -0.137989 0.084271 -0.0169844 -0.150902 0.086373 -0.0242584 -0.163757 
0.0866565 -0.0322538 -0.176579 0.080727 -0.0399196 -0.186894 0.0717852 -0.0474255 -0.195994 
0.0553302 -0.0512084 -0.19898 0.0358699 -0.0535021 -0.199521 0.0503046 0.00238995 -0.0837712 
0.0537377 -9.0462e-05 -0.0905689 0.058015 -0.00315442 -0.0979866 0.0628607 -0.00706939 -0.106088 
0.0681698 -0.0116778 -0.114746 0.0729461 -0.0173028 -0.123802 0.077355 -0.023629 -0.133132 
0.0791533 -0.0306104 -0.141885 0.0794357 -0.0379722 -0.150305 0.0746508 -0.0444025 -0.156177 
0.067409 -0.0503811 -0.160814 0.0539217 -0.0525551 -0.1603 0.0379363 -0.0532072 -0.157726 
0.0477573 0.000694002 -0.0808161 0.0505528 -0.00274544 -0.086202 0.0541224 -0.00678689 -0.0919025 
0.0582138 -0.0115641 -0.0978584 0.0627304 -0.0169408 -0.104022 0.0668345 -0.0230018 -0.110073 
0.070654 -0.0295347 -0.116045 0.0723949 -0.0361685 -0.120995 0.0729288 -0.0428609 -0.125351 
0.0694496 -0.0480815 -0.127125 0.0640246 -0.0525883 -0.127647 0.0534541 -0.0532295 -0.123809 
0.0408253 -0.0523245 -0.118227 0.0440374 -0.00024779 -0.0778715 0.046226 -0.0045661 -0.0819103 
0.049192 -0.00947361 -0.0859961 0.0527523 -0.0149612 -0.0899971 0.0567969 -0.0209215 -0.0939289 
0.0606758 -0.0272253 -0.0973837 0.0644404 -0.0337659 -0.100509 0.0666822 -0.0399276 -0.10233 
0.0680398 -0.0458691 -0.103392 0.0662316 -0.0499381 -0.10185 0.0628884 -0.053099 -0.099045 
0.0551188 -0.0523802 -0.0922816 0.0455787 -0.0501095 -0.0839346 0.0397293 -0.000870188 -0.0752078 
0.0413297 -0.00610381 -0.0779391 0.0437471 -0.0119153 -0.0804664 0.0468769 -0.0181597 -0.0826036 
0.050587 -0.0247569 -0.0844231 0.0544128 -0.0313887 -0.0854508 0.0583182 -0.0380444 -0.0859323 
0.061249 -0.0439055 -0.0848639 0.0636137 -0.0493054 -0.0828956 0.0635908 -0.0525038 -0.0782761 
0.0624103 -0.0546349 -0.0723713 0.0574241 -0.0528902 -0.0627557 0.0509157 -0.0495951 -0.0516558 
0.0343139 -0.000891378 -0.073073 0.0353612 -0.00710893 -0.0745712 0.0373338 -0.0138957 -0.0756456 
0.0402222 -0.0209842 -0.0760908 0.0438569 -0.0283186 -0.0760231 0.0479532 -0.0354389 -0.0749409 
0.052368 -0.0424117 -0.073159 0.0563415 -0.0482956 -0.0696563 0.0600588 -0.0535473 -0.0651544 
0.0620365 -0.0564044 -0.0579065 0.0631709 -0.0581004 -0.0493272 0.060935 -0.0559587 -0.0369974 
0.0573512 -0.0522818 -0.0231675 0.0280914 -0.000664696 -0.0714673 0.0285847 -0.00797691 -0.071748 
0.03015 -0.0158557 -0.0713973 0.0328699 -0.0239186 -0.0702072 0.0365306 -0.0321316 -0.0683332 
0.0410126 -0.0399181 -0.0652643 0.0460612 -0.0474104 -0.0613713 0.051178 -0.0535837 -0.0556256 
0.0563344 -0.058991 -0.048804 0.0603412 -0.0618908 -0.0391458 0.0637906 -0.0635749 -0.0281123 
0.0642529 -0.0615315 -0.0132202 0.0635204 -0.0579971 0.00321547 0.0205948 -4.66335e-05 -0.0706971 
0.0205323 -0.00862838 -0.0697848 0.0217497 -0.0177832 -0.0680527 0.024416 -0.0270264 -0.0653172 
0.0282629 -0.0363417 -0.0617643 0.0333124 -0.0450747 -0.0569032 0.0391913 -0.0534061 -0.0511399 
0.0456101 -0.0602894 -0.0434532 0.0523425 -0.0663319 -0.0346496 0.0584232 -0.0698812 -0.0229257 
0.064188 -0.0722217 -0.00978581 0.067266 -0.0710587 0.00742929 0.0692693 -0.0684943 0.0262745 
0.0119132 0.00065692 -0.0706511 0.0112765 -0.00936493 -0.0685066 0.0121731 -0.0199585 -0.0653604 
0.0148395 -0.0305423 -0.0610748 0.0189477 -0.0411182 -0.055861 0.0246323 -0.0509729 -0.0492759 
0.0314042 -0.0603303 -0.0417451 0.039137 -0.0681507 -0.0322893 0.0474278 -0.0750786 -0.0217156 
0.05548 -0.0795917 -0.00822011 0.0634165 -0.082934 0.00669207 0.0688978 -0.0830899 0.0258011 
0.073397 -0.0819713 0.046589 0.00165168 0.00147446 -0.0715705 0.000415892 -0.0102149 -0.0681417 
0.0010282 -0.0224642 -0.0635378 0.00376603 -0.0346024 -0.0576959 0.00823574 -0.0466499 -0.0508451 
0.0146458 -0.05786 -0.042627 0.0223939 -0.0684926 -0.033466 0.0314567 -0.0775525 -0.0224701 
0.0412829 -0.0856994 -0.0104088 0.0511699 -0.0915955 0.00446603 0.0610864 -0.0964003 0.020705 
0.0686878 -0.0984599 0.0411361 0.0753631 -0.0994214 0.063244 -0.0103179 0.00200025 -0.0732925 
-0.0121441 -0.0115424 -0.0684574 -0.0117483 -0.0255856 -0.0622767 -0.00885544 -0.0393832 -0.0547896 
-0.00392787 -0.0529808 -0.0462381 0.00327652 -0.0656127 -0.0363889 0.0120511 -0.0775787 -0.0256448 
0.0224187 -0.0879341 -0.0132628 0.0337113 -0.0973545 7.02448e-05 0.0452445 -0.104688 0.0159476 
0.0568942 -0.111009 0.0330586 0.0662574 -0.11503 0.05411 0.074706 -0.118132 0.0767377 
-0.0242183 0.00219623 -0.0759217 -0.0266253 -0.0134098 -0.0695426 -0.0263693 -0.0294028 -0.0616502 
-0.0232268 -0.0449789 -0.0524178 -0.0177325 -0.0602151 -0.0420935 -0.00965574 -0.0743439 -0.0306152 
0.000201945 -0.0877091 -0.0183411 0.0118459 -0.0994232 -0.00474704 0.024527 -0.110179 0.00961355 
0.037493 -0.11901 0.0260675 0.050597 -0.126908 0.0435363 0.0613171 -0.132958 0.064415 
0.0710837 -0.138268 0.0866577 0.0435925 0.00897401 -0.0907715 0.0469026 0.0100411 -0.100691 
0.0512015 0.0110002 -0.111917 0.0563952 0.0115806 -0.124763 0.0623177 0.0118524 -0.13893 
0.0681332 0.011342 -0.154504 0.0738748 0.010292 -0.17105 0.0771591 0.00826774 -0.187684 
0.0790166 0.0056777 -0.20437 0.0752301 0.00293607 -0.218097 0.0687071 0.000120931 -0.230391 
0.0548236 -0.000577452 -0.235361 0.0379959 -0.000429126 -0.237402 0.0443464 0.00692048 -0.0886791 
0.0474471 0.00686175 -0.0971924 0.051442 0.00658003 -0.106676 0.0561749 0.00583999 -0.117268 
0.061509 0.0047265 -0.128765 0.0666256 0.00288684 -0.141028 0.0715922 0.000546364 -0.153821 
0.0743275 -0.00246365 -0.16614 0.075767 -0.00586246 -0.178184 0.0723988 -0.00887527 -0.187295 
0.0666995 -0.0117009 -0.194985 0.0547475 -0.0119006 -0.196607 0.0402943 -0.0110498 -0.195801 
0.0436368 0.00517892 -0.0857629 0.0464227 0.00412439 -0.0928092 0.0500435 0.00279434 -0.100509 
0.0543393 0.00104803 -0.108877 0.0591851 -0.00103744 -0.117789 0.0638598 -0.00362245 -0.126966 
0.0684166 -0.00655197 -0.136326 0.0711094 -0.00969152 -0.144834 0.0727199 -0.012953 -0.152847 
0.0703227 -0.0152635 -0.158019 0.0659824 -0.0171128 -0.161813 0.0562423 -0.0159878 -0.160437 
0.0443423 -0.013673 -0.156992 0.0423882 0.00362219 -0.0828377 0.044854 0.00159155 -0.088445 
0.0481205 -0.00075538 -0.0944069 0.0520426 -0.00345908 -0.100631 0.0564989 -0.00645349 -0.107069 
0.060883 -0.00971105 -0.113324 0.0652173 -0.0131501 -0.119453 0.0680845 -0.0163552 -0.124395 
0.0700999 -0.0194244 -0.128648 0.0688734 -0.021017 -0.130126 0.0660751 -0.0218937 -0.130257 
0.0586367 -0.0194696 -0.12594 0.0493422 -0.0157251 -0.119844 0.039918 0.0024844 -0.0798923 
0.0420516 -0.000477715 -0.0841236 0.0450086 -0.00377024 -0.0884492 0.0487006 -0.00732058 -0.0927145 
0.0529914 -0.011081 -0.0969305 0.0574279 -0.0148461 -0.100635 0.0619647 -0.0186144 -0.103987 
0.0654977 -0.0217401 -0.105921 0.0684478 -0.0244925 -0.107031 0.0688446 -0.0253321 -0.10537 
0.0680035 -0.0252443 -0.102365 0.0630702 -0.0215791 -0.0952376 0.0564998 -0.0164829 -0.0864616 
0.0368256 0.00154765 -0.0772092 0.0386269 -0.00237847 -0.0801047 0.0413042 -0.00664886 -0.082852 
0.0448356 -0.0110826 -0.0852499 0.0490629 -0.0156495 -0.0873631 0.0536897 -0.0199872 -0.0886787 
0.0585923 -0.0241668 -0.0894442 0.0629673 -0.0273509 -0.088584 0.067036 -0.0299569 -0.0867798 
0.0692183 -0.0302895 -0.0821654 0.0704859 -0.0295196 -0.0761884 0.0681697 -0.0249468 -0.0662486 
0.06442 -0.0188529 -0.0547238 0.0325622 0.000989299 -0.0750201 0.0340307 -0.00396203 -0.0766553 
0.0364847 -0.00927103 -0.0779335 0.0399863 -0.0146575 -0.0786367 0.0443415 -0.020107 -0.0788712 
0.0494189 -0.0251397 -0.0781011 0.0549944 -0.0298848 -0.0766381 0.0605433 -0.033387 -0.0733881 
0.0660767 -0.0361676 -0.0691003 0.0703494 -0.0364557 -0.0618819 0.0740109 -0.0355353 -0.0532426 
0.0745231 -0.0306829 -0.0404856 0.0737756 -0.0242575 -0.0260814 0.0274783 0.000595086 -0.0733285 
0.0285983 -0.00547243 -0.0737216 0.0308454 -0.0119142 -0.0735632 0.034363 -0.0183583 -0.0726337 
0.0389159 -0.0248043 -0.071076 0.0445268 -0.0306803 -0.0683457 0.0508674 -0.0361633 -0.0648068 
0.0576696 -0.0402268 -0.0593512 0.0647399 -0.0434662 -0.0527827 0.0711447 -0.0441042 -0.0431584 
0.0772268 -0.0434808 -0.0320526 0.080585 -0.0389383 -0.0165926 0.0828535 -0.0328282 0.000609148 
0.0210988 0.000460035 -0.0724228 0.0218454 -0.00686732 -0.0716023 0.0239116 -0.0145904 -0.0700585 
0.0275175 -0.0222579 -0.0675946 0.032378 -0.02988 -0.064381 0.0386535 -0.0368338 -0.0598886 
0.0459047 -0.0433267 -0.0545145 0.0540859 -0.0483355 -0.0471445 0.062807 -0.0524826 -0.0386155 
0.0714097 -0.0540929 -0.0268981 0.0799549 -0.0544732 -0.0136349 0.0861867 -0.051172 0.00434765 
0.091493 -0.0463981 0.0242179 0.0135716 0.000373861 -0.0721973 0.0139154 -0.00835094 -0.0701284 
0.0158087 -0.0174836 -0.0671758 0.0195282 -0.0265001 -0.0631846 0.0247357 -0.0354217 -0.0583472 
0.0316995 -0.0435974 -0.0521743 0.0398746 -0.0512587 -0.0450803 0.0493907 -0.0574259 -0.0359775 
0.0596856 -0.0627257 -0.0257081 0.0703173 -0.0656564 -0.0122024 0.0811123 -0.0674385 0.00287234 
0.0899307 -0.0659543 0.0229184 0.0979583 -0.0631636 0.0449529 0.00451409 0.000352858 -0.0728789 
0.00441576 -0.00995289 -0.0695151 0.00614696 -0.0206661 -0.0651225 0.0100138 -0.0311989 -0.0596136 
0.0156208 -0.0415847 -0.0531952 0.0233047 -0.0511745 -0.0454502 0.0324211 -0.0602153 -0.0367903 
0.0432136 -0.0678252 -0.0261969 0.0549795 -0.0746044 -0.0144806 0.0674151 -0.0793196 0.000406921 
0.0801754 -0.0830341 0.0168321 0.0911978 -0.0841348 0.0383296 0.101525 -0.08419 0.0618561 
-0.00613197 8.18401e-05 -0.0743292 -0.00667424 -0.011947 -0.069552 -0.00505893 -0.0243377 -0.0636141 
-0.000995805 -0.0364531 -0.0565195 0.00506183 -0.0483441 -0.0484825 0.0134741 -0.0593811 -0.0391936 
0.0235103 -0.0698292 -0.0290411 0.0354605 -0.0789171 -0.0171348 0.0485223 -0.0872153 -0.00421019 
0.06243 -0.0937734 0.0116507 0.0767479 -0.0994877 0.0289352 0.0893971 -0.103277 0.0510933 
0.101379 -0.106296 0.0752009 -0.0185738 -0.000471805 -0.0766486 -0.0195621 -0.0143845 -0.070324 
-0.0180104 -0.0285624 -0.0627216 -0.0136956 -0.0423351 -0.0539645 -0.00712939 -0.0557776 -0.0442666 
0.00202041 -0.0682993 -0.0334654 0.012952 -0.0801861 -0.0219032 0.0259258 -0.0907919 -0.00888516 
0.0400856 -0.100654 0.00497834 0.0550903 -0.109121 0.0213507 0.0705048 -0.116911 0.0389395 
0.0841285 -0.123506 0.060864 0.0970358 -0.129622 0.084523 0.0341082 0.0106124 -0.0917453 
0.0360895 0.0130156 -0.10177 0.0389838 0.0156277 -0.113094 0.0428707 0.0183273 -0.125933 
0.0475664 0.0210981 -0.140006 0.0526634 0.0236305 -0.155147 0.0580373 0.0259986 -0.171026 
0.0620854 0.0277908 -0.186343 0.0653638 0.0292486 -0.201333 0.0646364 0.0303846 -0.212729 
0.0619668 0.0313644 -0.222382 0.0532837 0.0333187 -0.224934 0.0421953 0.0356627 -0.224645 
0.0361288 0.00934739 -0.0897993 0.0382459 0.0107298 -0.0984198 0.0412314 0.0122085 -0.10801 
0.04509 0.0136793 -0.118638 0.0496601 0.0151435 -0.130111 0.0544848 0.0163859 -0.142123 
0.0594853 0.0174753 -0.154507 0.0631904 0.018247 -0.166009 0.0661433 0.0188342 -0.177 
0.0655387 0.0196458 -0.184698 0.0632093 0.0205663 -0.190799 0.0555603 0.023127 -0.190998 
0.0457833 0.0263438 -0.188835 0.0367614 0.00792297 -0.0870117 0.0388874 0.00831297 -0.0941706 
0.041858 0.00872664 -0.101994 0.0456568 0.00912642 -0.110444 0.0501304 0.00951486 -0.119407 
0.0548597 0.0098358 -0.128489 0.0597655 0.0101102 -0.137653 0.0635823 0.0104675 -0.145704 
0.0667667 0.010873 -0.153108 0.0669133 0.0121152 -0.157446 0.065587 0.0137631 -0.160297 
0.0595108 0.0176584 -0.158078 0.0515346 0.0224527 -0.153833 0.0368354 0.00653399 -0.0842059 
0.0389468 0.00593459 -0.0899313 0.0418979 0.00529571 -0.0960328 0.0456703 0.00465327 -0.102387 
0.0501119 0.00400793 -0.108947 0.0548654 0.00346163 -0.115249 0.059834 0.00298363 -0.121374 
0.0639722 0.00298139 -0.126172 0.0676283 0.0032554 -0.130199 0.0687811 0.00494826 -0.13133 
0.0687202 0.00732906 -0.131055 0.0644394 0.012547 -0.126367 0.0584705 0.0188997 -0.119914 
0.0356431 0.00522529 -0.0813586 0.0376864 0.00364336 -0.0857145 0.0406079 0.00198029 -0.0901987 
0.0444298 0.000360784 -0.0946382 0.0489853 -0.00122322 -0.0990412 0.0540338 -0.00251387 -0.102904 
0.0594225 -0.0036022 -0.106395 0.0643577 -0.00383989 -0.10839 0.0690296 -0.00358364 -0.109518 
0.0717668 -0.00139459 -0.107787 0.0735659 0.00173159 -0.104672 0.0715849 0.00824502 -0.0973943 
0.0680917 0.0161134 -0.0884524 0.0337955 0.00400123 -0.0787551 0.0357515 0.00140728 -0.0817814 
0.0386486 -0.00130796 -0.0847069 0.0425612 -0.00393425 -0.0873218 0.0473012 -0.00648805 -0.0896836 
0.0527571 -0.00857458 -0.0912579 0.0587068 -0.0103389 -0.0922891 0.0646161 -0.0109322 -0.0916658 
0.0705021 -0.0108457 -0.0900817 0.0750464 -0.00839872 -0.0856192 0.0789402 -0.00480734 -0.0797609 
0.0795121 0.00264011 -0.0698131 0.0787553 0.01163 -0.0582294 0.0307144 0.00293647 -0.0766104 
0.0325467 -0.000724999 -0.0783826 0.0354295 -0.00454508 -0.0798592 0.0395105 -0.00823408 -0.0808191 
0.0445678 -0.0118163 -0.0813581 0.0506423 -0.0147957 -0.0809267 0.0574181 -0.0173595 -0.079826 
0.0646351 -0.0185348 -0.0769296 0.0721083 -0.0189039 -0.0729905 0.0788791 -0.0166476 -0.0660374 
0.0853094 -0.0131185 -0.0576229 0.088911 -0.00541745 -0.0448517 0.091381 0.00395232 -0.0303377 
0.0267987 0.00195406 -0.0749327 0.0284752 -0.00284672 -0.0754695 0.0313377 -0.00784479 -0.0755317 
0.0356063 -0.0126788 -0.0749001 0.0410206 -0.0173793 -0.073703 0.0477679 -0.0213769 -0.0713873 
0.0554346 -0.0248899 -0.0683 0.0640237 -0.0268789 -0.0632994 0.0731484 -0.0279828 -0.0571878 
0.0822082 -0.0263424 -0.0479125 0.0912366 -0.0233714 -0.0371033 0.0979691 -0.0161346 -0.0215745 
0.103783 -0.00719148 -0.00415788 0.0215654 0.0011017 -0.0739925 0.0230351 -0.00495179 -0.0733236 
0.0258682 -0.0112433 -0.0720257 0.0303547 -0.0173524 -0.0699024 0.0361882 -0.0233129 -0.0671064 
0.0436942 -0.0285266 -0.0630979 0.0523537 -0.0332255 -0.0582533 0.0624166 -0.0363938 -0.0514153 
0.0732944 -0.0386734 -0.0434198 0.084742 -0.0383203 -0.0320881 0.0964659 -0.0366906 -0.0191389 
0.106489 -0.0310513 -0.000956684 0.115833 -0.0238082 0.0193188 0.0152213 0.000254907 -0.0736965 
0.0164399 -0.00715507 -0.0717893 0.0192287 -0.0148349 -0.0691132 0.0239276 -0.0223127 -0.0655115 
0.0301829 -0.029626 -0.0611557 0.0384278 -0.0361746 -0.0555405 0.0480448 -0.0421958 -0.0490567 
0.0594814 -0.0467517 -0.0405612 0.0719746 -0.0504567 -0.0308976 0.0855678 -0.0517882 -0.0178104 
0.0996944 -0.0519688 -0.0030633 0.112627 -0.0486769 0.0173006 0.125081 -0.043996 0.0399111 
0.00739643 -0.000584439 -0.0742596 0.00830448 -0.00948931 -0.0710706 0.0110291 -0.0186838 -0.066992 
0.0159334 -0.0276553 -0.0619299 0.0226138 -0.0364451 -0.0560664 0.031571 -0.0444869 -0.0489589 
0.0420985 -0.0520126 -0.0409935 0.0547754 -0.0582335 -0.0310805 0.0687004 -0.0636966 -0.0200367 
0.0841162 -0.0672426 -0.00559505 0.100255 -0.0698591 0.010494 0.115587 -0.0699144 0.0324102 
0.130596 -0.0689452 0.0566575 -0.00189089 -0.00166102 -0.0755737 -0.00131502 -0.0121545 -0.0709868 
0.00136065 -0.0229194 -0.0654099 0.00647833 -0.0334145 -0.0588327 0.0135858 -0.0436899 -0.0514405 
0.0232009 -0.0532303 -0.0428836 0.0345454 -0.0622638 -0.0335234 0.0482471 -0.0701693 -0.0223803 
0.0633175 -0.0774197 -0.0102019 0.0800609 -0.0832464 0.00517139 0.0976155 -0.0883826 0.0220938 
0.114487 -0.0919407 0.0446998 0.131086 -0.0948674 0.0695793 -0.0128314 -0.00300577 -0.0777367 
-0.0126122 -0.0151939 -0.0716209 -0.0099682 -0.0275922 -0.0644372 -0.00462813 -0.0396448 -0.0562831 
0.00290872 -0.0514158 -0.0473385 0.01312 -0.0624611 -0.0373805 0.0251757 -0.0730061 -0.0267237 
0.0396586 -0.0826184 -0.0145624 0.0555508 -0.0916891 -0.00152728 0.0730623 -0.099871 0.0142999 
0.0913588 -0.107622 0.0314807 0.108798 -0.114859 0.0538013 0.125894 -0.121889 0.0781778 
0.024674 0.0120521 -0.0917054 0.0253614 0.0157799 -0.101656 0.0269057 0.0200321 -0.112888 
0.0296028 0.0248225 -0.12556 0.0332392 0.0300516 -0.139405 0.037893 0.0355093 -0.154089 
0.0432486 0.0411248 -0.169351 0.0484637 0.0463509 -0.183578 0.0535973 0.0513509 -0.197205 
0.056159 0.0555656 -0.206742 0.0574737 0.0593995 -0.214297 0.053648 0.0630274 -0.214934 
0.0477662 0.0665729 -0.212805 0.0279474 0.0115627 -0.0899602 0.0291081 0.0143628 -0.0985264 
0.0311267 0.0175706 -0.108049 0.0341971 0.0211953 -0.118551 0.0381246 0.0251597 -0.129851 
0.0428423 0.0293263 -0.141529 0.048105 0.0336324 -0.153468 0.0530208 0.0377949 -0.16424 
0.0577352 0.041874 -0.174334 0.0599914 0.0458052 -0.1809 0.0610556 0.0496647 -0.185756 
0.0574368 0.0541823 -0.184926 0.0519449 0.0589631 -0.181822 0.0298947 0.0104518 -0.0873907 
0.0313719 0.0122546 -0.0945298 0.0337134 0.0143683 -0.102331 0.037065 0.0168413 -0.11073 
0.0412395 0.0196073 -0.119616 0.0461344 0.0226659 -0.128528 0.051526 0.0259265 -0.137457 
0.0566029 0.0294259 -0.145113 0.0614969 0.033064 -0.152029 0.0642176 0.0372799 -0.155778 
0.0658845 0.0417759 -0.157991 0.0632645 0.0478169 -0.155338 0.0589296 0.0544761 -0.150738 
0.0312617 0.00923355 -0.0847982 0.0330126 0.0100274 -0.0905403 0.0356477 0.0110431 -0.0966697 
0.0392855 0.0123774 -0.10305 0.0437402 0.0139714 -0.109633 0.0489083 0.0159641 -0.115926 
0.0545684 0.0182319 -0.122017 0.0600254 0.021117 -0.12673 0.0653645 0.0243604 -0.130643 
0.0688751 0.0288768 -0.131667 0.0714993 0.0340105 -0.131291 0.0702321 0.0415613 -0.126687 
0.0674085 0.0500789 -0.12039 0.0313134 0.00777212 -0.0821535 0.0332409 0.00753018 -0.0865668 
0.0361028 0.00743948 -0.0911358 0.0400384 0.00766429 -0.0956853 0.0448488 0.00814618 -0.100219 
0.0505079 0.00916846 -0.104227 0.0567525 0.0105634 -0.107871 0.0630864 0.0129443 -0.110035 
0.0694722 0.0158978 -0.111339 0.0745104 0.0207508 -0.109849 0.0788951 0.026525 -0.107004 
0.0797839 0.0355541 -0.100158 0.0792743 0.0458854 -0.0917118 0.030677 0.00628598 -0.0797319 
0.0327429 0.0049827 -0.0828561 0.035813 0.00376313 -0.0859229 0.0400618 0.00285733 -0.0887307 
0.0452712 0.00220721 -0.0913274 0.0515143 0.00222191 -0.0931917 0.0584705 0.00269512 -0.0945509 
0.0658699 0.00446575 -0.0943254 0.0735266 0.00698976 -0.0931797 0.0803865 0.0119369 -0.0892611 
0.08686 0.018059 -0.0839981 0.0903104 0.0281642 -0.074778 0.0925515 0.0398628 -0.0639751 
0.0287454 0.00475331 -0.0777304 0.0308775 0.00234055 -0.07964 0.0341206 -5.02261e-05 -0.0813145 
0.038712 -0.0021263 -0.0825471 0.0444019 -0.00394595 -0.0834196 0.0514041 -0.00500863 -0.0834071 
0.0593114 -0.00554927 -0.0827843 0.0681311 -0.00458877 -0.0804697 0.0774807 -0.00275662 -0.0771727 
0.086716 0.00182812 -0.0709875 0.0958958 0.00774747 -0.0634021 0.102672 0.0181714 -0.0515583 
0.108486 0.0303972 -0.0380112 0.025966 0.00322549 -0.0761595 0.0281156 -0.000349895 -0.0768728 
0.0315045 -0.00396471 -0.0771894 0.036433 -0.0072717 -0.0769084 0.042616 -0.0103279 -0.0761405 
0.0504078 -0.0125722 -0.0743649 0.0593092 -0.0142567 -0.0718943 0.0696056 -0.0143315 -0.0676408 
0.0807121 -0.0134715 -0.062352 0.092415 -0.009715 -0.0540378 0.104407 -0.00455413 -0.0442567 
0.114715 0.00532559 -0.0298127 0.124348 0.0170929 -0.0135034 0.0218478 0.00170532 -0.0752683 
0.0239382 -0.0031166 -0.0748145 0.0274295 -0.00803887 -0.0738273 0.0326867 -0.0126725 -0.0721301 
0.0393827 -0.017071 -0.0698543 0.0480125 -0.0206618 -0.066495 0.057976 -0.0236955 -0.0623884 
0.069838 -0.0251608 -0.0564333 0.0828024 -0.0257156 -0.0494048 0.0971187 -0.0235229 -0.0391784 
0.112091 -0.019998 -0.0274015 0.126255 -0.012025 -0.0103943 0.140097 -0.0022726 0.008705 
0.0166548 0.000145265 -0.0749751 0.0186256 -0.00599501 -0.0733235 0.0221815 -0.0122884 -0.0710177 
0.0277327 -0.0183134 -0.0679198 0.0349099 -0.0241196 -0.0641765 0.0443182 -0.0291536 -0.0593161 
0.0552652 -0.033655 -0.0536854 0.0685413 -0.0367185 -0.0461947 0.08317 -0.0389471 -0.037624 
0.0997844 -0.0387725 -0.025761 0.117362 -0.0374328 -0.0123018 0.134895 -0.0323146 0.00682447 
0.15241 -0.025685 0.0282176 0.0100285 -0.00146797 -0.075479 0.0117996 -0.00902237 -0.0725891 
0.0153693 -0.0167718 -0.0689446 0.0211685 -0.0242742 -0.0644668 0.0287845 -0.0315753 -0.0593099 
0.038892 -0.0381817 -0.0530587 0.0507177 -0.0443089 -0.0460528 0.0652061 -0.0492472 -0.037248 
0.0812407 -0.0534951 -0.0273985 0.0997327 -0.0559446 -0.0142664 0.119416 -0.057522 0.000457236 
0.139666 -0.0565229 0.0211105 0.160143 -0.0544932 0.0441357 0.00205973 -0.00331663 -0.0766928 
0.00358765 -0.0123345 -0.0724555 0.00715437 -0.0215585 -0.0673861 0.0131694 -0.0305366 -0.0614832 
0.0211793 -0.0393141 -0.054901 0.0318729 -0.0474754 -0.047306 0.0444172 -0.0552118 -0.0390124 
0.0598098 -0.0620327 -0.0290717 0.0768564 -0.0683219 -0.0181747 0.0965576 -0.073472 -0.00417376 
0.117546 -0.0780697 0.0113321 0.139301 -0.0814031 0.0326604 0.161363 -0.0842308 0.0563178 
-0.00742654 -0.00543143 -0.0787092 -0.00619087 -0.0159684 -0.0730012 -0.00264613 -0.0266881 -0.0664093 
0.00354814 -0.0371397 -0.0590302 0.0119013 -0.0473728 -0.0510095 0.0230531 -0.0570694 -0.0421237 
0.036135 -0.0663962 -0.0326412 0.0520836 -0.0751084 -0.0217665 0.0696968 -0.0834638 -0.0100832 
0.0898518 -0.0914011 0.00433405 0.111239 -0.0991357 0.0200769 0.13313 -0.107043 0.0411172 
0.155223 -0.115019 0.0642767 0.0152805 0.0133298 -0.0908394 0.0147025 0.0183731 -0.10057 
0.0149412 0.0242545 -0.111555 0.0165437 0.0311127 -0.12393 0.0192576 0.0387669 -0.137438 
0.0236926 0.0470542 -0.151644 0.0293146 0.0557782 -0.16633 0.0360251 0.0641263 -0.179654 
0.0433676 0.0722563 -0.192186 0.0494059 0.078899 -0.20025 0.0548117 0.0848204 -0.206148 
0.0555639 0.0893242 -0.205283 0.0544547 0.0932609 -0.201713 0.0197956 0.0136056 -0.0893393 
0.0200219 0.0178044 -0.0977197 0.0211083 0.0227157 -0.107032 0.0234607 0.028448 -0.117277 
0.0268446 0.0348494 -0.128282 0.0316058 0.0418116 -0.13956 0.0373167 0.0491607 -0.151025 
0.0436395 0.0563954 -0.161136 0.0503177 0.0635638 -0.17046 0.0555136 0.0700402 -0.176125 
0.0599908 0.0761811 -0.180015 0.0601802 0.0820009 -0.178478 0.0586544 0.0876922 -0.17477 
0.0230351 0.0128052 -0.087061 0.0238724 0.0159951 -0.0940724 0.0256023 0.019773 -0.101735 
0.0285472 0.0242601 -0.109972 0.0324822 0.0293249 -0.118678 0.0376328 0.0349842 -0.127359 
0.0436219 0.0410534 -0.136021 0.0500697 0.0474058 -0.143331 0.0567839 0.0539226 -0.149857 
0.0621033 0.0606404 -0.153218 0.0667465 0.0674556 -0.155044 0.0674134 0.0751336 -0.152287 
0.0664897 0.0831568 -0.147696 0.0256711 0.0117602 -0.0847585 0.0270565 0.0139162 -0.0904343 
0.0293749 0.0165429 -0.0965009 0.0328904 0.0197852 -0.102821 0.0373812 0.023529 -0.109348 
0.0430007 0.0279205 -0.115584 0.0493988 0.0327588 -0.12162 0.0562134 0.0382739 -0.126297 
0.06327 0.0441821 -0.130184 0.0691209 0.0511458 -0.131299 0.0743873 0.0586212 -0.13107 
0.0760167 0.0681292 -0.126918 0.0761913 0.0784503 -0.121198 0.026939 0.0101608 -0.0824012 
0.02873 0.0112261 -0.0868172 0.0315126 0.0126613 -0.0914108 0.0355487 0.0146599 -0.0960182 
0.0406062 0.0171176 -0.100637 0.0468746 0.0203212 -0.104777 0.0539781 0.0240392 -0.108589 
0.0617079 0.0288192 -0.111008 0.0698013 0.034216 -0.112619 0.0771084 0.041436 -0.111622 
0.0840343 0.0495399 -0.109359 0.0877257 0.0608139 -0.103417 0.0901233 0.0733561 -0.0960048 
0.0274865 0.00843316 -0.080245 0.0296258 0.00838673 -0.08344 0.0328305 0.00861437 -0.0866186 
0.037379 0.00935818 -0.0895997 0.0430224 0.0105226 -0.0924199 0.0500189 0.0125164 -0.0945997 
0.0579485 0.0150822 -0.0963377 0.0668018 0.019032 -0.0966411 0.0761915 0.0237855 -0.0961115 
0.085329 0.0310054 -0.0930564 0.0943441 0.0394211 -0.0887768 0.100665 0.0520075 -0.0808841 
0.105909 0.0662621 -0.071546 0.0266778 0.00646396 -0.0784672 0.0290573 0.00526636 -0.0805145 
0.0326052 0.00425631 -0.0823866 0.0376507 0.0037243 -0.0839047 0.0439163 0.00358179 -0.0851343 
0.0517899 0.0043247 -0.0856062 0.0607723 0.00567822 -0.0855554 0.0711415 0.00861878 -0.0840085 
0.0823159 0.0124809 -0.0815928 0.0939882 0.0192182 -0.0765853 0.105902 0.0273496 -0.0703211 
0.115921 0.0403941 -0.0601721 0.125182 0.0554038 -0.0484691 0.0250085 0.00442558 -0.0770787 
0.0275633 0.00204191 -0.0779953 0.0314059 -0.000238887 -0.0785937 0.0369201 -0.00208644 -0.0787065 
0.0437964 -0.00358099 -0.0784236 0.0525579 -0.00417396 -0.0772905 0.0626196 -0.00414517 -0.075571 
0.0745585 -0.00243645 -0.0723026 0.0875875 0.000247728 -0.0681349 0.101924 0.00598815 -0.0612804 
0.116894 0.0132104 -0.0531233 0.130939 0.0256911 -0.040704 0.144615 0.0402752 -0.0265797 
0.0219803 0.00227796 -0.0763047 0.0246078 -0.00134688 -0.0761177 0.0286687 -0.00495062 -0.075494 
0.0346071 -0.00817644 -0.0742926 0.0420755 -0.0110943 -0.0726205 0.0517421 -0.0131574 -0.070045 
0.0629247 -0.0146309 -0.0668464 0.0765185 -0.0145054 -0.0620601 0.0915123 -0.0134514 -0.0563518 
0.108717 -0.00952006 -0.047817 0.126993 -0.0041936 -0.0379118 0.145584 0.00610972 -0.0231999 
0.1643 0.0184038 -0.00656531 0.017912 4.32115e-05 -0.0760738 0.0205354 -0.00486414 -0.0747546 
0.0247535 -0.00982529 -0.0728954 0.0310536 -0.0144672 -0.0703943 0.0390501 -0.018849 -0.0673701 
0.0495259 -0.02246 -0.0634253 0.0617117 -0.0255394 -0.0588456 0.0767615 -0.0272076 -0.0526835 
0.0934743 -0.0280564 -0.0456026 0.113158 -0.0264517 -0.0356204 0.134283 -0.0236574 -0.0242315 
0.156814 -0.0166978 -0.00761021 0.179907 -0.00807202 0.0111041 0.0124565 -0.00230769 -0.0765669 
0.0149739 -0.00855269 -0.0740775 0.0192678 -0.0149172 -0.070965 0.025846 -0.0210256 -0.0671834 
0.0342853 -0.0269253 -0.0628567 0.0454427 -0.0321881 -0.0576401 0.0584744 -0.0370117 -0.0518098 
0.0747151 -0.0407543 -0.0444615 0.0928191 -0.0438692 -0.0362317 0.114465 -0.0452813 -0.0251128 
0.137829 -0.0458676 -0.0125932 0.163492 -0.0438068 0.0054268 0.190076 -0.040687 0.0256469 
0.00577365 -0.00490116 -0.0777099 0.0081183 -0.0124919 -0.0739518 0.0124381 -0.0202445 -0.0695094 
0.0192224 -0.0277895 -0.0644085 0.0280148 -0.0351651 -0.0587709 0.0396854 -0.0420432 -0.0523251 
0.053341 -0.0485781 -0.0453217 0.0703754 -0.0543941 -0.0369414 0.0893717 -0.0597927 -0.0277616 
0.11213 -0.0643109 -0.015854 0.136712 -0.0684022 -0.00262392 0.16389 -0.0715163 0.0160207 
0.192106 -0.0742394 0.0368312 -0.00229681 -0.00776884 -0.0795876 -0.000200185 -0.0167145 -0.0744492 
0.00408915 -0.025838 -0.0685906 0.0109982 -0.0347855 -0.0621263 0.0200419 -0.0435896 -0.0551687 
0.0320357 -0.0520416 -0.0475415 0.0460642 -0.0602507 -0.0394525 0.0634432 -0.0681391 -0.0302147 
0.0827678 -0.0758413 -0.0203097 0.105678 -0.0835668 -0.00800691 0.130326 -0.0913035 0.00545845 
0.157189 -0.0999046 0.0238529 0.184936 -0.108851 0.0442189 0.00630774 0.0142936 -0.0888558 
0.00450498 0.0206023 -0.0981199 0.00346557 0.0280665 -0.108579 0.00399374 0.0369746 -0.120383 
0.0057992 0.0470594 -0.133282 0.0100643 0.0582179 -0.146833 0.0160256 0.0701169 -0.160836 
0.0243681 0.0815689 -0.173365 0.0340932 0.0927614 -0.185038 0.043708 0.101432 -0.192103 
0.0532693 0.108879 -0.196934 0.0583502 0.113401 -0.195246 0.0616388 0.116752 -0.19095 
0.0120048 0.015264 -0.0876909 0.011338 0.0207829 -0.0956824 0.0115262 0.0273108 -0.104557 
0.0131897 0.0350631 -0.11432 0.0160553 0.0438131 -0.124809 0.0208915 0.05347 -0.135534 
0.0270865 0.0637526 -0.146422 0.034845 0.0738504 -0.155928 0.0435113 0.0838409 -0.164631 
0.0515718 0.0923671 -0.169741 0.0593384 0.100183 -0.173108 0.0630124 0.106531 -0.171427 
0.0650492 0.112291 -0.167727 0.016446 0.0147432 -0.085812 0.0166666 0.0192247 -0.0925357 
0.0177999 0.0245556 -0.099881 0.0203435 0.0309284 -0.107784 0.0240363 0.03815 -0.116143 
0.0294283 0.0462344 -0.124481 0.0359924 0.0549139 -0.132806 0.0437556 0.0638266 -0.139832 
0.0522152 0.0728746 -0.146104 0.0599648 0.0815769 -0.149387 0.0673701 0.0901116 -0.151221 
0.070976 0.0987043 -0.148897 0.0730622 0.10732 -0.14491 0.0202566 0.0138561 -0.0839066 
0.021279 0.0172663 -0.0893974 0.023274 0.0213745 -0.0952705 0.0266453 0.0263658 -0.101408 
0.0311379 0.0320767 -0.107762 0.0371476 0.0386363 -0.113875 0.0442036 0.0457812 -0.119822 
0.0522418 0.0535746 -0.124538 0.0608503 0.0617445 -0.12854 0.068786 0.0706269 -0.130046 
0.0763954 0.0798548 -0.130342 0.0805406 0.0906345 -0.127196 0.0833 0.102035 -0.122673 
0.0226379 0.0121392 -0.0819414 0.0242685 0.0144008 -0.0862784 0.0269356 0.0172276 -0.0908078 
0.0310154 0.0208334 -0.0953946 0.0362464 0.0250739 -0.100028 0.0430136 0.0302168 -0.104281 
0.0508404 0.0359819 -0.10827 0.0597659 0.0428052 -0.111062 0.0693293 0.050243 -0.113159 
0.0785775 0.0593147 -0.113002 0.087673 0.0691787 -0.111752 0.0937338 0.0820137 -0.107377 
0.0985807 0.096037 -0.101752 0.0242679 0.0102039 -0.0801488 0.0264303 0.0113026 -0.083368 
0.0297047 0.0128414 -0.0866082 0.0344621 0.0150652 -0.089726 0.040428 0.0178474 -0.0927441 
0.0480205 0.0215757 -0.095262 0.0567349 0.0259566 -0.0974349 0.0667779 0.0317361 -0.0984297 
0.0775926 0.0383277 -0.0987404 0.0886026 0.0473253 -0.096964 0.0997071 0.0574893 -0.0941757 
0.108391 0.071877 -0.0884243 0.116107 0.0879542 -0.0814876 0.0244837 0.00785759 -0.0786813 
0.0270345 0.00776625 -0.0808505 0.0307938 0.00800451 -0.0829037 0.0361705 0.00885339 -0.0847067 
0.0428651 0.0101998 -0.0863058 0.0514104 0.0125178 -0.0873263 0.0612319 0.0155057 -0.0879476 
0.0728263 0.0201026 -0.0873855 0.0854501 0.0256336 -0.0861362 0.0990669 0.0340609 -0.0828218 
0.113165 0.0438924 -0.0785061 0.125804 0.0588869 -0.0711009 0.137859 0.0759466 -0.0624598 