# vtk DataFile Version 2.0
vtk output
ASCII
DATASET RECTILINEAR_GRID
DIMENSIONS 13 13 13
X_COORDINATES 13 float
-10 -9.79167 -9.58333 -9.375 -9.16667 -8.95833 -8.75 -8.54167 -8.33333 
-8.125 -7.91667 -7.70833 -7.5 
Y_COORDINATES 13 float
-7.5 -7.29167 -7.08333 -6.875 -6.66667 -6.45833 -6.25 -6.04167 -5.83333 
-5.625 -5.41667 -5.20833 -5 
Z_COORDINATES 13 float
0 0.208333 0.416667 0.625 0.833333 1.04167 1.25 1.45833 1.66667 
1.875 2.08333 2.29167 2.5 
POINT_DATA 2197
VECTORS grad float
0.324416 0.0673259 0.188772 0.314108 0.0794758 0.240892 0.302106 0.0916638 0.293261 
0.250279 0.104747 0.351482 0.194606 0.117205 0.407004 0.0956577 0.122624 0.432181 
-0.00254663 0.12645 0.450191 -0.0954217 0.118867 0.416841 -0.179699 0.110291 0.379494 
-0.219908 0.0966226 0.32166 -0.250648 0.0832979 0.266061 -0.24446 0.0713127 0.21918 
-0.233387 0.0602179 0.176812 0.327975 0.0184769 0.188648 0.317762 0.0180441 0.241624 
0.30583 0.0176036 0.294869 0.253481 0.0169847 0.354439 0.197187 0.0163756 0.411253 
0.0965217 0.0158765 0.437067 -0.00338886 0.0154095 0.455501 -0.0978912 0.0151728 0.421048 
-0.183603 0.0148991 0.382541 -0.224262 0.0144349 0.323256 -0.255302 0.0138405 0.266342 
-0.248833 0.0127378 0.218672 -0.237463 0.0114805 0.175652 0.324117 -0.0284395 0.184367 
0.313802 -0.0405345 0.236098 0.301789 -0.0526712 0.288083 0.249901 -0.065786 0.34601 
0.194154 -0.0783077 0.401244 0.0950003 -0.0841575 0.426193 -0.00342394 -0.088511 0.443969 
-0.0966268 -0.0821399 0.410348 -0.181243 -0.0749232 0.372769 -0.221852 -0.0633728 0.314906 
-0.253007 -0.0523565 0.259339 -0.247288 -0.0434233 0.212726 -0.236685 -0.035593 0.170666 
0.301717 -0.0705249 0.169691 0.290803 -0.0919807 0.214927 0.278336 -0.113483 0.260309 
0.229366 -0.136077 0.309111 0.177082 -0.157626 0.355589 0.0875155 -0.167409 0.375918 
-0.0014412 -0.174631 0.390336 -0.0860274 -0.163499 0.362384 -0.163222 -0.150823 0.330952 
-0.202535 -0.130231 0.281688 -0.233337 -0.110403 0.234123 -0.230951 -0.0935505 0.193181 
-0.223772 -0.078507 0.156117 0.275817 -0.106553 0.152591 0.264492 -0.134928 0.19073 
0.251777 -0.163335 0.228918 0.206374 -0.192478 0.268235 0.158227 -0.220255 0.305621 
0.0792057 -0.232665 0.32127 0.000667443 -0.241817 0.332272 -0.0744106 -0.227629 0.30996 
-0.143363 -0.211395 0.284708 -0.180918 -0.184683 0.244386 -0.211027 -0.158829 0.205208 
-0.212101 -0.136323 0.170493 -0.20855 -0.116102 0.138955 0.242696 -0.130086 0.130489 
0.231348 -0.160347 0.160292 0.218811 -0.190582 0.190067 0.178313 -0.220228 0.219158 
0.135693 -0.248461 0.24676 0.0691946 -0.260803 0.257604 0.00303573 -0.269952 0.265071 
-0.0606955 -0.256223 0.248339 -0.119711 -0.240358 0.229331 -0.154557 -0.213547 0.198659 
-0.183271 -0.187414 0.168666 -0.188067 -0.163928 0.141322 -0.188563 -0.142727 0.116403 
0.210801 -0.147193 0.108414 0.199726 -0.177596 0.130611 0.18765 -0.207923 0.152724 
0.152045 -0.236435 0.172865 0.114853 -0.26357 0.191904 0.0598159 -0.275207 0.198549 
0.00498218 -0.283886 0.202888 -0.048394 -0.271373 0.190708 -0.0983011 -0.256781 0.176863 
-0.130428 -0.231531 0.154495 -0.157643 -0.206788 0.132484 -0.165696 -0.184018 0.111866 
-0.169812 -0.163431 0.0930518 0.181015 -0.153231 0.0863848 0.170724 -0.180777 0.102233 
0.159598 -0.208201 0.11798 0.128865 -0.232762 0.131366 0.0969343 -0.25612 0.143943 
0.0515265 -0.265957 0.147436 0.00620211 -0.273366 0.149349 -0.0385269 -0.263371 0.139948 
-0.080752 -0.251608 0.129406 -0.110143 -0.23078 0.113024 -0.13568 -0.210298 0.0969229 
-0.146186 -0.191166 0.0819153 -0.153187 -0.173936 0.0683235 0.154438 -0.155168 0.0656932 
0.145048 -0.179476 0.0760951 0.134968 -0.203632 0.0863874 0.108689 -0.224203 0.0941054 
0.0815152 -0.243752 0.101251 0.0442774 -0.251811 0.10196 0.00700536 -0.257945 0.101665 
-0.0305141 -0.250281 0.0941807 -0.0663363 -0.241193 0.0860123 -0.0934589 -0.224804 0.0743368 
-0.117636 -0.208691 0.0629584 -0.130326 -0.193652 0.0527387 -0.139903 -0.180288 0.0436883 
0.132514 -0.151158 0.0469411 0.124195 -0.171677 0.0532058 0.115299 -0.192033 0.059363 
0.0928672 -0.208559 0.0629915 0.0697211 -0.224252 0.0661981 0.0385368 -0.230565 0.0646572 
0.00720442 -0.23542 0.0624704 -0.0251898 -0.229814 0.0556539 -0.0564641 -0.223177 0.0485096 
-0.0819975 -0.211253 0.0396853 -0.105275 -0.199663 0.0313097 -0.119757 -0.189376 0.0246841 
-0.131464 -0.180619 0.0191882 0.113727 -0.145633 0.0296927 0.106464 -0.162735 0.0324033 
0.0987199 -0.17967 0.0350057 0.079678 -0.192698 0.035065 0.0600464 -0.205052 0.0348121 
0.0337809 -0.209825 0.0310472 0.00724487 -0.213526 0.0269159 -0.021231 -0.209549 0.0201579 
-0.0490804 -0.2049 0.0133959 -0.0737189 -0.196811 0.00661298 -0.0966828 -0.189179 0.00049468 
-0.113116 -0.183329 -0.00303168 -0.127046 -0.178971 -0.00534917 0.0987905 -0.138246 0.0142898 
0.0925657 -0.152389 0.0141615 0.0859332 -0.16637 0.0139214 0.0697193 -0.17657 0.01105 
0.0529727 -0.186222 0.00792674 0.0302337 -0.189704 0.00196863 0.00709069 -0.192407 -0.00417174 
-0.0189478 -0.18953 -0.0116186 -0.0447508 -0.186302 -0.018786 -0.0693462 -0.181275 -0.0245214 
-0.0927143 -0.176908 -0.0292973 -0.111296 -0.17511 -0.0303317 -0.12756 -0.174893 -0.0299323 
0.0861108 -0.131213 6.28978e-05 0.0808762 -0.143047 -0.0026467 0.0752957 -0.154727 -0.00547826 
0.0615919 -0.162785 -0.0111757 0.0473823 -0.170388 -0.0170917 0.0274833 -0.172866 -0.0254662 
0.00703127 -0.174778 -0.0338735 -0.0173855 -0.172638 -0.0425155 -0.041937 -0.1704 -0.0505892 
-0.0671779 -0.167656 -0.0557503 -0.0915979 -0.165775 -0.0595832 -0.112817 -0.167263 -0.0582362 
-0.131865 -0.170495 -0.0551103 0.381375 0.0727023 0.171776 0.372588 0.0883018 0.226008 
0.361731 0.103991 0.280673 0.302202 0.121774 0.345497 0.237403 0.138725 0.407419 
0.113321 0.146318 0.436685 -0.00973712 0.151671 0.457631 -0.125459 0.140976 0.418949 
-0.229513 0.129024 0.376165 -0.273764 0.110628 0.312361 -0.306077 0.0929112 0.251732 
-0.291833 0.0778406 0.203484 -0.272383 0.0640774 0.160382 0.385874 0.0161112 0.171718 
0.377303 0.0153311 0.226964 0.366628 0.0145399 0.282671 0.306499 0.0134889 0.349229 
0.240956 0.01246 0.412816 0.114514 0.0116805 0.442976 -0.0108817 0.0109767 0.464535 
-0.128782 0.0108146 0.424456 -0.234721 0.0106442 0.380216 -0.27936 0.0104314 0.314647 
-0.31186 0.0100923 0.252433 -0.297016 0.00926076 0.2033 -0.276977 0.00827624 0.159473 
0.380671 -0.0380758 0.167522 0.371897 -0.0539646 0.221402 0.361051 -0.0699444 0.275721 
0.301499 -0.0880652 0.340351 0.236663 -0.105384 0.402083 0.112399 -0.113686 0.431218 
-0.0108515 -0.119839 0.452013 -0.126836 -0.1106 0.413031 -0.231153 -0.100219 0.369991 
-0.27567 -0.0839833 0.306148 -0.308268 -0.0685599 0.245549 -0.29438 -0.0563028 0.197603 
-0.275309 -0.0455148 0.154843 0.351212 -0.0862533 0.152982 0.34119 -0.114073 0.199548 
0.329289 -0.142013 0.246399 0.273257 -0.172793 0.299947 0.212758 -0.202178 0.351028 
0.102014 -0.215876 0.374342 -0.00788418 -0.22596 0.390926 -0.11172 -0.210148 0.359274 
-0.205644 -0.19229 0.324073 -0.248763 -0.163943 0.270682 -0.281237 -0.136796 0.219701 
-0.272196 -0.114326 0.178121 -0.257989 -0.0942808 0.14091 0.317576 -0.127032 0.136189 
0.306545 -0.163493 0.174887 0.293854 -0.20007 0.21373 0.24213 -0.239352 0.255994 
0.186781 -0.276833 0.296241 0.0906513 -0.294032 0.313802 -0.00480715 -0.306694 0.326214 
-0.0954558 -0.28683 0.301717 -0.178018 -0.264278 0.274246 -0.219134 -0.22795 0.231529 
-0.251026 -0.192981 0.190451 -0.246947 -0.163314 0.155762 -0.237819 -0.136691 0.124603 
0.275325 -0.152549 0.11475 0.263783 -0.190868 0.144437 0.250842 -0.229224 0.174159 
0.205052 -0.26844 0.204718 0.156531 -0.305826 0.233757 0.077272 -0.322621 0.245705 
-0.00150381 -0.335068 0.254023 -0.0768225 -0.316349 0.236322 -0.146027 -0.294842 0.216354 
-0.18389 -0.259052 0.184772 -0.214256 -0.224312 0.154183 -0.215377 -0.193667 0.12747 
-0.211769 -0.165991 0.103401 0.235099 -0.170541 0.0935561 0.223481 -0.20855 0.115158 
0.210708 -0.246522 0.136716 0.170797 -0.283622 0.157246 0.128914 -0.318968 0.176687 
0.0648504 -0.334589 0.183873 0.00110082 -0.346266 0.188684 -0.0604028 -0.329676 0.176468 
-0.1175 -0.310384 0.162632 -0.152013 -0.277242 0.140487 -0.18061 -0.244835 0.118876 
-0.186134 -0.215297 0.0993422 -0.187315 -0.188507 0.0817273 0.198361 -0.175571 0.0727851 
0.187419 -0.209537 0.0878955 0.17553 -0.2434 0.102936 0.141401 -0.274854 0.116325 
0.105833 -0.304811 0.128939 0.0540783 -0.31793 0.13283 0.00250209 -0.32788 0.135144 
-0.0477952 -0.315117 0.126159 -0.0949408 -0.300052 0.11609 -0.125933 -0.273191 0.100464 
-0.152345 -0.246744 0.0852253 -0.160896 -0.221907 0.071498 -0.165609 -0.19934 0.0592396 
0.165839 -0.176137 0.0534553 0.155742 -0.205753 0.0630903 0.144877 -0.235223 0.0726397 
0.115963 -0.261235 0.0801786 0.0860255 -0.286006 0.0871911 0.0445754 -0.296808 0.0882816 
0.00318149 -0.305151 0.0884182 -0.0378113 -0.295873 0.0817176 -0.0766729 -0.28472 0.0743912 
-0.104611 -0.263958 0.0638571 -0.129097 -0.243402 0.0536721 -0.140121 -0.22365 0.0448481 
-0.147779 -0.205756 0.037198 0.139432 -0.17023 0.0362153 0.130425 -0.195053 0.0418476 
0.120785 -0.219715 0.0473953 0.0962632 -0.240583 0.050954 0.0709636 -0.260462 0.0541414 
0.036913 -0.269212 0.0531515 0.00281417 -0.276122 0.0515739 -0.0316317 -0.269836 0.0457851 
-0.0646271 -0.262139 0.0397153 -0.090188 -0.24721 0.0322053 -0.113123 -0.232448 0.0251604 
-0.125816 -0.218335 0.01993 -0.135566 -0.205767 0.0158035 0.116819 -0.162921 0.020493 
0.108874 -0.183535 0.0227479 0.100407 -0.203985 0.0249184 0.0796705 -0.220556 0.0251035 
0.0583328 -0.236351 0.0250323 0.0302326 -0.243414 0.0220773 0.0019799 -0.249138 0.0188177 
-0.0273671 -0.245269 0.0133753 -0.0558182 -0.240398 0.00795652 -0.0796771 -0.230397 0.0026591 
-0.101587 -0.220598 -0.00199712 -0.115897 -0.211588 -0.00415265 -0.127612 -0.203928 -0.00515769 
0.0988613 -0.153892 0.00663303 0.091944 -0.171014 0.0062782 0.0845867 -0.187981 0.00583808 
0.0668905 -0.201297 0.0033939 0.0486856 -0.214 0.00075918 0.0247574 -0.219821 -0.00401914 
0.000572541 -0.224665 -0.00892133 -0.0254525 -0.222506 -0.0147114 -0.0509815 -0.219689 -0.0202224 
-0.0739672 -0.213502 -0.0243029 -0.0954988 -0.207646 -0.027493 -0.11136 -0.203081 -0.0272101 
-0.124884 -0.199819 -0.0255871 0.0834673 -0.145419 -0.00599015 0.0774926 -0.159847 -0.00864998 
0.0711456 -0.174131 -0.0114004 0.0560497 -0.185043 -0.0162781 0.0405039 -0.195467 -0.0213046 
0.0198961 -0.200407 -0.0280036 -0.00107799 -0.204633 -0.0346823 -0.0246784 -0.203741 -0.0412155 
-0.0481344 -0.202453 -0.0472207 -0.0708497 -0.199134 -0.0505203 -0.0925381 -0.196277 -0.0526242 
-0.110221 -0.195223 -0.0500645 -0.125776 -0.195503 -0.0458665 0.433281 0.0769254 0.125009 
0.428437 0.0962594 0.166828 0.421153 0.115784 0.209058 0.356563 0.139776 0.260928 
0.284834 0.162702 0.310528 0.132786 0.173624 0.334601 -0.0178621 0.181344 0.351861 
-0.158477 0.166111 0.320297 -0.283493 0.149387 0.285639 -0.328565 0.125023 0.235122 
-0.359344 0.101907 0.187451 -0.334377 0.0836532 0.150879 -0.304519 0.0672058 0.118496 
0.438879 0.0139425 0.124595 0.4345 0.0128108 0.167216 0.42764 0.0116617 0.210274 
0.362467 0.0101028 0.263609 0.289931 0.00858136 0.31462 0.134557 0.00748247 0.339482 
-0.0193763 0.00652579 0.357286 -0.162985 0.00658807 0.32451 -0.290537 0.00666915 0.288598 
-0.335795 0.00684657 0.236616 -0.366503 0.00688515 0.187643 -0.340469 0.0063823 0.150404 
-0.309608 0.00572042 0.117488 0.432278 -0.0461957 0.12103 0.427507 -0.0660884 0.162539 
0.420296 -0.0861687 0.204465 0.355758 -0.110657 0.256184 0.284055 -0.134107 0.30564 
0.131746 -0.145871 0.329625 -0.0191641 -0.154535 0.346775 -0.160061 -0.140986 0.314945 
-0.285329 -0.126027 0.280061 -0.330493 -0.103846 0.229528 -0.361388 -0.0829796 0.181908 
-0.336634 -0.0672433 0.145652 -0.307041 -0.0534244 0.113623 0.39518 -0.0992229 0.109588 
0.387871 -0.133615 0.145201 0.378376 -0.168271 0.181091 0.317516 -0.209135 0.223491 
0.250746 -0.248218 0.263977 0.117483 -0.267256 0.282922 -0.014636 -0.281205 0.296427 
-0.138558 -0.258687 0.270936 -0.249492 -0.233667 0.242782 -0.293863 -0.195826 0.200984 
-0.325586 -0.159953 0.161358 -0.307979 -0.131756 0.130208 -0.28533 -0.106718 0.102614 
0.353473 -0.143658 0.0964656 0.343993 -0.188291 0.125785 0.332606 -0.2332 0.155254 
0.276392 -0.284593 0.188269 0.215523 -0.333708 0.219734 0.102276 -0.357197 0.233763 
-0.0100801 -0.374416 0.243701 -0.116058 -0.346698 0.224317 -0.211715 -0.315707 0.202714 
-0.254473 -0.267949 0.169739 -0.286374 -0.222425 0.138256 -0.275932 -0.18561 0.112593 
-0.260379 -0.15273 0.0898001 0.302257 -0.170373 0.0798792 0.291367 -0.216464 0.102083 
0.278899 -0.262708 0.12434 0.229327 -0.312572 0.147831 0.176355 -0.360171 0.17017 
0.0851261 -0.382288 0.179538 -0.00546688 -0.398618 0.186075 -0.091505 -0.37347 0.172317 
-0.169938 -0.344945 0.156893 -0.209389 -0.299115 0.132925 -0.240128 -0.254984 0.109891 
-0.236889 -0.21748 0.0904976 -0.228746 -0.183722 0.073263 0.254129 -0.188701 0.0635083 
0.242512 -0.233719 0.0793643 0.229615 -0.278778 0.0952019 0.186636 -0.324764 0.110604 
0.141304 -0.368623 0.125193 0.069495 -0.388544 0.130644 -0.00189612 -0.403395 0.134293 
-0.0702953 -0.381907 0.12503 -0.133384 -0.35716 0.114602 -0.169254 -0.315703 0.0982054 
-0.198356 -0.275406 0.0823432 -0.201056 -0.239627 0.0685671 -0.19918 -0.207221 0.0563708 
0.21132 -0.192582 0.0475087 0.200152 -0.232173 0.0583385 0.187951 -0.271702 0.0691255 
0.15148 -0.309768 0.0789041 0.113344 -0.346058 0.0881143 0.0564803 -0.362362 0.0909307 
-0.00012081 -0.374717 0.0925795 -0.0548438 -0.358769 0.0858605 -0.105827 -0.340058 0.0783935 
-0.137645 -0.307187 0.0670928 -0.164289 -0.274923 0.0562037 -0.170753 -0.245032 0.0469198 
-0.173175 -0.217813 0.0388672 0.17376 -0.191798 0.0325908 0.163299 -0.225817 0.0391897 
0.152015 -0.259705 0.0457312 0.121367 -0.290488 0.0509207 0.0895863 -0.319831 0.0557345 
0.0450613 -0.332973 0.0563214 0.000665703 -0.343149 0.0562316 -0.0428049 -0.332068 0.0512924 
-0.0837845 -0.318737 0.0459613 -0.111996 -0.293878 0.0386215 -0.136361 -0.269243 0.0316597 
-0.145726 -0.24548 0.0261725 -0.151561 -0.223782 0.0216942 0.143812 -0.184248 0.0192416 
0.134434 -0.212488 0.0227628 0.124385 -0.240573 0.0262259 0.0985681 -0.264996 0.0283259 
0.071923 -0.288294 0.0301683 0.0359563 -0.298933 0.0291131 1.8442e-05 -0.307389 0.0276645 
-0.0357144 -0.3002 0.0233969 -0.0697362 -0.291299 0.0190055 -0.0949882 -0.273622 0.01398 
-0.117335 -0.256024 0.00942926 -0.128349 -0.23874 0.00673021 -0.136315 -0.223049 0.00500058 
0.118257 -0.175414 0.0070212 0.109937 -0.198677 0.00793969 0.101071 -0.221777 0.00879939 
0.0793675 -0.241023 0.00827756 0.0570566 -0.259406 0.00758562 0.0279132 -0.268071 0.00498007 
-0.00129548 -0.275177 0.00219979 -0.0309725 -0.271101 -0.0018328 -0.0595535 -0.265776 -0.00575106 
-0.0825165 -0.254051 -0.00908327 -0.10333 -0.24236 -0.0117949 -0.115761 -0.230807 -0.0120865 
-0.125545 -0.220516 -0.0113536 0.0980938 -0.165004 -0.00381399 0.0908028 -0.184275 -0.00491503 
0.0830553 -0.203393 -0.00607602 0.0645829 -0.218914 -0.00864558 0.0456225 -0.233766 -0.0113354 
0.0211731 -0.241109 -0.0153788 -0.00342759 -0.247317 -0.0194577 -0.0291129 -0.245398 -0.0237909 
-0.0541146 -0.242603 -0.0278086 -0.0756119 -0.235321 -0.0302097 -0.0954894 -0.228149 -0.0317843 
-0.10905 -0.22141 -0.0301355 -0.120268 -0.215775 -0.0272913 0.0807997 -0.155248 -0.01368 
0.0744335 -0.171433 -0.016561 0.0676837 -0.187479 -0.0195065 0.0519189 -0.200257 -0.0239644 
0.0357476 -0.212516 -0.0285112 0.0150034 -0.218947 -0.0340576 -0.00597822 -0.224554 -0.0395289 
-0.0286613 -0.224263 -0.0444623 -0.0510046 -0.223378 -0.0488853 -0.0716057 -0.219451 -0.0506928 
-0.0910257 -0.215721 -0.0514242 -0.105839 -0.212758 -0.047959 -0.118554 -0.210831 -0.0430396 
0.482526 0.0808545 0.0771071 0.481438 0.10373 0.105789 0.477563 0.126892 0.134841 
0.408189 0.156784 0.172593 0.329899 0.185386 0.208753 0.15129 0.199475 0.227013 
-0.0255593 0.209446 0.240144 -0.189807 0.189895 0.21652 -0.33472 0.168634 0.190857 
-0.380535 0.138602 0.15474 -0.40982 0.11036 0.121042 -0.374636 0.0890952 0.0967752 
-0.334858 0.070112 0.075648 0.489161 0.0118008 0.0763173 0.488779 0.0103292 0.105567 
0.485557 0.00883408 0.13521 0.415618 0.00678677 0.174111 0.336462 0.00479179 0.21138 
0.153609 0.00338549 0.230293 -0.0274263 0.00218515 0.243875 -0.195443 0.00246084 0.219264 
-0.343508 0.00278174 0.19259 -0.389313 0.00333432 0.155352 -0.418281 0.00373708 0.120673 
-0.381582 0.00355554 0.0959753 -0.340407 0.00321018 0.0745237 0.481226 -0.0539904 0.0734067 
0.480271 -0.0776922 0.101819 0.476528 -0.101674 0.130609 0.407279 -0.132223 0.168247 
0.329075 -0.161509 0.204298 0.150134 -0.176572 0.222506 -0.0270431 -0.18763 0.235563 
-0.191589 -0.16998 0.211714 -0.336739 -0.150667 0.185863 -0.382476 -0.122831 0.149759 
-0.411713 -0.0967894 0.116137 -0.376599 -0.077742 0.0921988 -0.336974 -0.0610375 0.0714384 
0.436867 -0.111626 0.0651944 0.432144 -0.152267 0.0892592 0.424944 -0.193308 0.11358 
0.35952 -0.243766 0.143925 0.286813 -0.292075 0.172944 0.132176 -0.3162 0.187053 
-0.021034 -0.333832 0.197142 -0.164012 -0.304938 0.178432 -0.291079 -0.273109 0.157986 
-0.336601 -0.226243 0.128653 -0.367572 -0.182077 0.101182 -0.341793 -0.148435 0.0809812 
-0.311087 -0.11865 0.0634507 0.387486 -0.159539 0.0558893 0.379487 -0.211939 0.0753655 
0.369346 -0.264769 0.09499 0.308886 -0.327681 0.118099 0.242792 -0.387864 0.140152 
0.113308 -0.417343 0.150327 -0.0150766 -0.438904 0.157561 -0.135586 -0.40372 0.143714 
-0.243651 -0.364709 0.128439 -0.287931 -0.30609 0.105842 -0.319804 -0.250534 0.0845432 
-0.303284 -0.206928 0.0683108 -0.281592 -0.168102 0.0542369 0.327749 -0.187398 0.0443305 
0.317485 -0.240876 0.0587218 0.30547 -0.294621 0.0731785 0.252323 -0.354611 0.08917 
0.195141 -0.411924 0.104393 0.0925661 -0.439111 0.110977 -0.00922597 -0.459143 0.115585 
-0.105414 -0.427889 0.106038 -0.192579 -0.392699 0.0954478 -0.2335 -0.337333 0.0795155 
-0.264556 -0.284281 0.0644295 -0.257139 -0.24026 0.0526438 -0.244653 -0.200722 0.0424945 
0.272109 -0.206052 0.0329423 0.260498 -0.257736 0.0428354 0.247487 -0.309533 0.0527336 
0.201609 -0.363973 0.0627495 0.153016 -0.415929 0.0722418 0.0738758 -0.439949 0.0758434 
-0.00474625 -0.457828 0.0782488 -0.0796599 -0.431696 0.0720808 -0.148404 -0.401773 0.0652216 
-0.185524 -0.352422 0.05482 -0.215065 -0.304631 0.0449432 -0.215045 -0.262921 0.0371131 
-0.210227 -0.225174 0.0305015 0.223525 -0.208853 0.0218484 0.212146 -0.253796 0.0282535 
0.199653 -0.298717 0.0346425 0.16097 -0.343077 0.040649 0.120408 -0.385395 0.0463015 
0.0587189 -0.40474 0.0479724 -0.0026276 -0.419394 0.0489034 -0.0615171 -0.400432 0.0445312 
-0.116108 -0.378268 0.0397585 -0.148667 -0.339692 0.0329333 -0.175487 -0.301906 0.0265376 
-0.179925 -0.267206 0.0218173 -0.180126 -0.235558 0.018077 0.181169 -0.206795 0.0114554 
0.170366 -0.245009 0.0149301 0.158686 -0.283106 0.0183753 0.126403 -0.318436 0.0211244 
0.0928847 -0.352138 0.0236525 0.0454655 -0.36752 0.0236938 -0.00175326 -0.379454 0.0233453 
-0.0475376 -0.366675 0.0202028 -0.0904875 -0.351289 0.0169089 -0.11891 -0.322542 0.0128397 
-0.143111 -0.294033 0.00917572 -0.150849 -0.26645 0.00709212 -0.154903 -0.241124 0.00584504 
0.147844 -0.197693 0.00207881 0.138115 -0.229195 0.00343147 0.127679 -0.260546 0.00475268 
0.100643 -0.288366 0.005335 0.0727323 -0.314932 0.00577578 0.0349725 -0.327385 0.00462429 
-0.00268319 -0.33733 0.00327905 -0.0395947 -0.3293 0.000545199 -0.0745457 -0.31927 -0.00215094 
-0.0994478 -0.298985 -0.00465374 -0.121178 -0.278694 -0.00667286 -0.130537 -0.258382 -0.00680561 
-0.13675 -0.239703 -0.00610763 0.119478 -0.187416 -0.00657525 0.110803 -0.213213 -0.0070288 
0.101558 -0.238848 -0.00751553 0.0789453 -0.260657 -0.00878198 0.0557208 -0.28152 -0.0101313 
0.0256142 -0.291732 -0.0124134 -0.00447207 -0.300173 -0.0147378 -0.034414 -0.295921 -0.0173661 
-0.0630671 -0.290182 -0.0197869 -0.0851137 -0.276823 -0.0211447 -0.104819 -0.263335 -0.0219024 
-0.115393 -0.249346 -0.0203195 -0.123273 -0.236528 -0.0178401 0.0971997 -0.175696 -0.0143427 
0.089553 -0.197027 -0.0162147 0.0814346 -0.218208 -0.0181216 0.0622325 -0.235847 -0.0208465 
0.042564 -0.252766 -0.0236213 0.0176484 -0.261581 -0.0269575 -0.00731511 -0.269113 -0.0302396 
-0.0326233 -0.267444 -0.0331342 -0.0570661 -0.26469 -0.0356755 -0.0770729 -0.256372 -0.0364056 
-0.0953007 -0.247949 -0.0363724 -0.10659 -0.23912 -0.0333623 -0.115535 -0.231201 -0.0293024 
0.0780805 -0.164713 -0.0214228 0.0713403 -0.182588 -0.0245443 0.064206 -0.200327 -0.0277044 
0.0478112 -0.214902 -0.0317706 0.0310532 -0.22893 -0.0358662 0.0102089 -0.236807 -0.0402935 
-0.0107463 -0.243756 -0.0445906 -0.0324976 -0.244061 -0.0479557 -0.0537188 -0.243582 -0.0508266 
-0.0722225 -0.239086 -0.0511651 -0.0893956 -0.234527 -0.0505458 -0.10138 -0.229727 -0.0461909 
-0.111297 -0.22567 -0.0405654 0.490952 0.0802758 0.0117956 0.490793 0.10373 0.0162326 
0.487787 0.127494 0.0207254 0.417875 0.158539 0.0265257 0.338682 0.188253 0.0320929 
0.155072 0.203012 0.0350378 -0.0266959 0.213455 0.0372448 -0.195268 0.19297 0.0341636 
-0.343725 0.170753 0.0308258 -0.389091 0.139659 0.0261727 -0.417513 0.110495 0.0219954 
-0.379853 0.0888558 0.0196733 -0.337645 0.0696118 0.0180644 0.497695 0.0100731 0.0103391 
0.498302 0.00843925 0.0147667 0.496009 0.00678088 0.0192539 0.42556 0.0045458 0.0251379 
0.345511 0.00236826 0.0307851 0.157473 0.000838302 0.0337679 -0.0286597 -0.000465037 0.0359899 
-0.201141 -0.000144251 0.0327601 -0.352852 0.000237948 0.0292816 -0.398117 0.000934832 0.0245286 
-0.426121 0.00149491 0.0202881 -0.386814 0.0015214 0.018046 -0.343093 0.00139895 0.0165497 
0.489411 -0.0567985 0.00845219 0.489406 -0.0813242 0.0126426 0.486554 -0.106151 0.0168904 
0.416806 -0.13805 0.0224852 0.337737 -0.168641 0.0278524 0.153807 -0.184508 0.0306596 
-0.0282719 -0.196164 0.032739 -0.197096 -0.177642 0.0296023 -0.345732 -0.157405 0.0262384 
-0.390906 -0.128382 0.0217103 -0.419169 -0.101246 0.0177002 -0.381478 -0.0814684 0.0157107 
-0.33934 -0.0641041 0.0144712 0.44356 -0.115343 0.00548939 0.439495 -0.15727 0.00887295 
0.432905 -0.19963 0.0122969 0.366956 -0.252156 0.0166702 0.293453 -0.302461 0.0208578 
0.134975 -0.327788 0.0229558 -0.0220051 -0.346313 0.0244981 -0.168254 -0.316099 0.0220587 
-0.297991 -0.282869 0.0194475 -0.343104 -0.234182 0.0159562 -0.373313 -0.188341 0.0129109 
-0.345402 -0.153597 0.0116053 -0.312585 -0.122833 0.0109835 0.392618 -0.163974 0.00223644 
0.385017 -0.217951 0.0047531 0.375236 -0.272393 0.00729481 0.314264 -0.337756 0.0104247 
0.247474 -0.400304 0.0134122 0.115243 -0.431187 0.0147977 -0.0158333 -0.453795 0.0157937 
-0.138645 -0.417111 0.0139985 -0.248586 -0.376495 0.0120946 -0.292555 -0.315733 0.00963369 
-0.323828 -0.2582 0.00755686 -0.305586 -0.213259 0.00697789 -0.282157 -0.173245 0.00701783 
0.331176 -0.19216 -0.00161493 0.321116 -0.247149 -8.89795e-05 0.309279 -0.30243 0.00144985 
0.255711 -0.364564 0.00329109 0.197998 -0.423944 0.00503644 0.0936575 -0.452332 0.00570286 
-0.00985735 -0.473277 0.00613334 -0.107456 -0.44089 0.00487295 -0.195747 -0.404455 0.0035826 
-0.23634 -0.34727 0.00213886 -0.266854 -0.29251 0.00103792 -0.258055 -0.247205 0.00127391 
-0.244156 -0.2065 0.00206646 0.274004 -0.211006 -0.00556842 0.262455 -0.264081 -0.00497234 
0.249491 -0.317285 -0.00437254 0.203291 -0.373532 -0.00368555 0.154323 -0.42723 -0.00305452 
0.0742116 -0.452255 -0.00305293 -0.00534516 -0.470923 -0.00315989 -0.0809296 -0.444025 -0.00404478 
-0.150169 -0.413225 -0.00488288 -0.186892 -0.362421 -0.00548119 -0.215881 -0.31323 -0.00575276 
-0.214713 -0.270328 -0.00475001 -0.20871 -0.231466 -0.00322944 0.22419 -0.213763 -0.00969775 
0.21282 -0.259887 -0.00992674 0.200327 -0.305997 -0.010156 0.161433 -0.351774 -0.0103918 
0.120637 -0.39546 -0.0106549 0.0584514 -0.415631 -0.0112248 -0.00335399 -0.430962 -0.0118208 
-0.0624362 -0.411606 -0.0126045 -0.117097 -0.388945 -0.0132682 -0.149096 -0.349349 -0.0133169 
-0.175245 -0.310542 -0.0130114 -0.178583 -0.27481 -0.0113249 -0.177661 -0.242154 -0.00911867 
0.180747 -0.211617 -0.013835 0.169916 -0.250833 -0.0148357 0.158205 -0.289937 -0.0158399 
0.125801 -0.326387 -0.0169281 0.0921607 -0.361174 -0.0180208 0.0446162 -0.377265 -0.0191653 
-0.0026876 -0.38981 -0.0202683 -0.048268 -0.376937 -0.0210738 -0.090925 -0.361364 -0.0216871 
-0.118599 -0.331951 -0.0213154 -0.141973 -0.302726 -0.0205408 -0.148576 -0.274234 -0.018195 
-0.151488 -0.247973 -0.0152977 0.146543 -0.202359 -0.0179839 0.136772 -0.234733 -0.0196787 
0.126294 -0.26696 -0.0213794 0.0991974 -0.295739 -0.0232178 0.0712381 -0.32324 -0.0250468 
0.0335722 -0.336375 -0.0267705 -0.00394213 -0.346932 -0.0284063 -0.0403714 -0.339009 -0.0294118 
-0.0747595 -0.328997 -0.0301544 -0.0986859 -0.308279 -0.02955 -0.119377 -0.287473 -0.0284628 
-0.127448 -0.266324 -0.0254931 -0.132384 -0.246733 -0.0218968 0.117368 -0.19189 -0.0220837 
0.108634 -0.218459 -0.0244543 0.099332 -0.244869 -0.0268338 0.0766953 -0.267528 -0.0294226 
0.0534705 -0.289227 -0.0319923 0.0236295 -0.300123 -0.0343486 -0.00613388 -0.309199 -0.0365765 
-0.0353425 -0.305222 -0.0378848 -0.0631809 -0.299673 -0.038856 -0.0839963 -0.286068 -0.0380991 
-0.102413 -0.272222 -0.0367581 -0.111474 -0.257441 -0.033139 -0.11787 -0.243707 -0.0287823 
0.094364 -0.179934 -0.0261235 0.086639 -0.201972 -0.0291472 0.0784449 -0.223863 -0.0321838 
0.0592269 -0.242308 -0.0355232 0.0395747 -0.260026 -0.0388392 0.0150384 -0.269564 -0.0418934 
-0.00947587 -0.27778 -0.0447863 -0.0338329 -0.276518 -0.0465236 -0.0572315 -0.274084 -0.0478449 
-0.0757171 -0.26565 -0.0470344 -0.0923616 -0.256975 -0.0455116 -0.101826 -0.247363 -0.0412116 
-0.108989 -0.238491 -0.0360192 0.0745707 -0.168618 -0.0299781 0.0677243 -0.187123 -0.0336351 
0.0604867 -0.205499 -0.0373104 0.0440587 -0.220831 -0.0414143 0.0273077 -0.235615 -0.0454952 
0.00692263 -0.244246 -0.0493171 -0.0134883 -0.251923 -0.0529501 -0.0340859 -0.252758 -0.0552287 
-0.0540412 -0.252726 -0.057009 -0.0707051 -0.248252 -0.056235 -0.0859626 -0.24356 -0.0545978 
-0.0957354 -0.238014 -0.0495946 -0.103493 -0.232994 -0.0434987 0.49412 0.07914 -0.0523745 
0.494411 0.10277 -0.0714625 0.491833 0.12672 -0.0907911 0.421833 0.158215 -0.115769 
0.342397 0.188366 -0.139667 0.156798 0.2034 -0.151408 -0.0269159 0.214035 -0.159676 
-0.197137 0.193139 -0.143058 -0.346899 0.170514 -0.12496 -0.391802 0.139025 -0.0992808 
-0.419584 0.109541 -0.0749694 -0.380589 0.0878783 -0.0559917 -0.337035 0.0686736 -0.0386423 
0.500841 0.00839852 -0.0544755 0.50193 0.00662643 -0.0741275 0.500095 0.00482954 -0.094035 
0.42958 0.00245047 -0.119945 0.349303 0.000132803 -0.144743 0.159207 -0.00149406 -0.15703 
-0.028939 -0.00288065 -0.165698 -0.203112 -0.00254524 -0.148431 -0.356152 -0.00213343 -0.129647 
-0.400884 -0.00133016 -0.103094 -0.428175 -0.000646743 -0.0779702 -0.387448 -0.000430754 -0.058421 
-0.34231 -0.000345796 -0.0405389 0.492341 -0.0589883 -0.0553584 0.4928 -0.0839336 -0.0746694 
0.490391 -0.10919 -0.0942236 0.420587 -0.141749 -0.119491 0.341306 -0.17298 -0.143671 
0.155418 -0.189266 -0.15563 -0.0285746 -0.201244 -0.164076 -0.198988 -0.182353 -0.147354 
-0.348861 -0.161719 -0.129132 -0.39347 -0.13216 -0.103225 -0.42099 -0.10452 -0.0786636 
-0.381871 -0.0843598 -0.059352 -0.33831 -0.066634 -0.0416333 0.445788 -0.117989 -0.0531962 
0.442051 -0.160537 -0.0699039 0.435772 -0.203532 -0.0867741 0.369743 -0.257038 -0.107461 
0.29605 -0.308294 -0.127231 0.136136 -0.334232 -0.136674 -0.0222414 -0.353227 -0.143346 
-0.169614 -0.322468 -0.130152 -0.30021 -0.288654 -0.115608 -0.344814 -0.239179 -0.0941485 
-0.374365 -0.192605 -0.0735887 -0.345201 -0.157339 -0.0565375 -0.311122 -0.126095 -0.0407221 
0.394109 -0.167006 -0.0505347 0.386714 -0.221736 -0.0645196 0.377129 -0.276946 -0.0785947 
0.316071 -0.343466 -0.0947894 0.249126 -0.407136 -0.110241 0.115951 -0.438735 -0.117327 
-0.0160375 -0.4619 -0.122344 -0.13953 -0.424616 -0.112528 -0.24996 -0.38335 -0.101535 
-0.29345 -0.321683 -0.0845131 -0.324117 -0.263304 -0.0679757 -0.304779 -0.217751 -0.0533287 
-0.280234 -0.177174 -0.0395529 0.331857 -0.195433 -0.0468434 0.321915 -0.251163 -0.0578591 
0.310191 -0.307198 -0.0689101 0.256568 -0.370369 -0.0807915 0.198762 -0.430754 -0.0921156 
0.0939035 -0.459785 -0.0971699 -0.0100999 -0.481246 -0.100779 -0.107976 -0.448453 -0.0940333 
-0.196417 -0.411556 -0.0863305 -0.236496 -0.353624 -0.0737242 -0.2664 -0.298146 -0.0612527 
-0.256618 -0.25224 -0.0493068 -0.241714 -0.210966 -0.0378515 0.273931 -0.214466 -0.0435123 
0.262434 -0.268255 -0.052001 0.24952 -0.322181 -0.060486 0.203299 -0.37934 -0.0688795 
0.154298 -0.433923 -0.0768732 0.0740151 -0.459529 -0.0803695 -0.00568483 -0.47868 -0.0829186 
-0.0812075 -0.451568 -0.0786791 -0.150301 -0.420493 -0.0736726 -0.186442 -0.369109 -0.0647357 
-0.214779 -0.319337 -0.0556592 -0.212682 -0.275852 -0.0460385 -0.205734 -0.236415 -0.0365816 
0.223456 -0.217322 -0.0408014 0.212112 -0.2641 -0.0475251 0.199645 -0.310869 -0.0542326 
0.16077 -0.357426 -0.0605597 0.119995 -0.401873 -0.0665952 0.0578455 -0.42258 -0.0693499 
-0.00389181 -0.438377 -0.0714363 -0.0626785 -0.418993 -0.068733 -0.116977 -0.396244 -0.0654011 
-0.148269 -0.356252 -0.0588479 -0.173658 -0.317016 -0.052011 -0.176025 -0.280731 -0.0440684 
-0.174127 -0.247498 -0.0360549 0.179386 -0.215242 -0.0387878 0.168559 -0.255069 -0.0441804 
0.156854 -0.294786 -0.0495507 0.124499 -0.331927 -0.0543974 0.0909211 -0.367392 -0.059037 
0.0435804 -0.384005 -0.0613459 -0.00348285 -0.397024 -0.0631921 -0.0485588 -0.38428 -0.0617223 
-0.0906537 -0.368775 -0.0597242 -0.11747 -0.339114 -0.0550185 -0.139943 -0.309581 -0.0499111 
-0.145478 -0.280545 -0.0432374 -0.147331 -0.253682 -0.0362913 0.144603 -0.206006 -0.0377853 
0.134821 -0.238968 -0.0424759 0.124334 -0.271785 -0.0471471 0.0973039 -0.301228 -0.0513633 
0.0694306 -0.329385 -0.0554225 0.0320768 -0.343075 -0.0577145 -0.00508078 -0.354149 -0.0596431 
-0.0408329 -0.34647 -0.0589679 -0.0744833 -0.336638 -0.0578093 -0.0973617 -0.315769 -0.0541738 
-0.116965 -0.294728 -0.0500561 -0.123793 -0.273014 -0.0440583 -0.127511 -0.252764 -0.0376343 
0.114853 -0.195507 -0.0373947 0.106088 -0.222646 -0.0416549 0.0967609 -0.249628 -0.0459002 
0.0741921 -0.272943 -0.0497957 0.0510624 -0.295293 -0.0535725 0.0216231 -0.306789 -0.0560137 