# vtk DataFile Version 2.0
vtk output
ASCII
DATASET RECTILINEAR_GRID
DIMENSIONS 13 13 13
X_COORDINATES 13 float
7.5 7.70833 7.91667 8.125 8.33333 8.54167 8.75 8.95833 9.16667 
9.375 9.58333 9.79167 10 
Y_COORDINATES 13 float
-10 -9.79167 -9.58333 -9.375 -9.16667 -8.95833 -8.75 -8.54167 -8.33333 
-8.125 -7.91667 -7.70833 -7.5 
Z_COORDINATES 13 float
-7.5 -7.29167 -7.08333 -6.875 -6.66667 -6.45833 -6.25 -6.04167 -5.83333 
-5.625 -5.41667 -5.20833 -5 
POINT_DATA 2197
VECTORS grad float
-0.00142185 0.0726601 0.0263919 -0.00328163 0.073839 0.0270902 -0.00522744 0.0748458 0.0278852 
-0.00746904 0.0751515 0.0288721 -0.00978648 0.0752773 0.0299083 -0.0123187 0.074632 0.0309323 
-0.0148927 0.0738361 0.031954 -0.0175034 0.0723364 0.0327553 -0.0201192 0.0707384 0.0335259 
-0.02256 0.0686137 0.0339412 -0.0249853 0.0664421 0.0343249 -0.0261756 0.0639672 0.034316 
-0.0273134 0.0614794 0.0342903 9.47354e-06 0.0760057 0.0280323 -0.00222866 0.0772742 0.0288983 
-0.00457861 0.0783396 0.0298678 -0.00726886 0.0785832 0.0310207 -0.0100464 0.078616 0.0322206 
-0.0130218 0.0777707 0.0333614 -0.0160358 0.076754 0.0344906 -0.0190084 0.0749724 0.0353279 
-0.0219753 0.0730842 0.0361244 -0.0246533 0.0706618 0.036493 -0.0273057 0.0681918 0.0368235 
-0.0285827 0.0654507 0.0367062 -0.0298013 0.062698 0.0365698 0.00146226 0.0795195 0.0297417 
-0.00116477 0.0808833 0.0307774 -0.00393021 0.082011 0.0319228 -0.00708051 0.082188 0.0332404 
-0.0103295 0.0821212 0.0346022 -0.0137567 0.0810625 0.0358556 -0.0172187 0.0798103 0.0370878 
-0.0205571 0.0777295 0.0379552 -0.0238782 0.075533 0.0387716 -0.0267928 0.0727961 0.0390873 
-0.0296712 0.070011 0.0393585 -0.0310336 0.06699 0.0391274 -0.0323314 0.0639589 0.0388749 
0.00341932 0.086988 0.0330739 0.000155708 0.0885792 0.0343268 -0.00329203 0.0898549 0.03568 
-0.00717019 0.0898596 0.0371335 -0.0111587 0.0895384 0.0386126 -0.0152398 0.0879527 0.039881 
-0.019339 0.0861203 0.0411082 -0.0231315 0.0833291 0.0418683 -0.0268812 0.0804041 0.0425634 
-0.030016 0.0769558 0.0426827 -0.0330962 0.073461 0.0427508 -0.0345121 0.0698399 0.0422789 
-0.0358572 0.0662133 0.041784 0.00544228 0.0945661 0.0366147 0.00150876 0.0963964 0.0380911 
-0.00265789 0.0978285 0.0396559 -0.00730055 0.0976522 0.0412384 -0.0120652 0.0970635 0.0428256 
-0.0168252 0.0949257 0.0440915 -0.0215841 0.0924857 0.0452947 -0.0258372 0.0889567 0.0459263 
-0.0300197 0.0852758 0.046478 -0.033367 0.0810973 0.0463812 -0.0366401 0.0768747 0.0462267 
-0.0381029 0.0726449 0.0454987 -0.0394887 0.0684148 0.0447464 0.0082066 0.103378 0.0425022 
0.00322829 0.105579 0.0442734 -0.00206929 0.107263 0.0460914 -0.00788844 0.106807 0.0477275 
-0.0138413 0.105804 0.0493168 -0.0195601 0.102831 0.0503848 -0.0252332 0.0994742 0.051351 
-0.03002 0.0949 0.0516125 -0.0346833 0.0901558 0.0517757 -0.038156 0.0850347 0.0512408 
-0.041523 0.07988 0.0506439 -0.0429574 0.074945 0.0494876 -0.0443095 0.0700192 0.0483075 
0.0111293 0.112253 0.0488092 0.00503006 0.114857 0.0508947 -0.00148497 0.116817 0.0529792 
-0.00856841 0.116068 0.0546511 -0.0157976 0.114623 0.0562172 -0.0225276 0.110763 0.0570403 
-0.0291603 0.106432 0.0577183 -0.0344825 0.100766 0.0575567 -0.0396219 0.0949128 0.0572778 
-0.0431906 0.0888282 0.0562623 -0.0466196 0.082723 0.0551813 -0.048006 0.0770835 0.0535684 
-0.0493055 0.0714638 0.0519328 0.015187 0.121582 0.0581234 0.00742124 0.124815 0.0606636 
-0.00093136 0.127238 0.0631077 -0.00990824 0.126079 0.0646895 -0.0190452 0.124002 0.0660501 
-0.0271625 0.118884 0.0662916 -0.0350807 0.113172 0.0663148 -0.0409496 0.106077 0.065349 
-0.0465326 0.0987883 0.0642452 -0.0499852 0.091591 0.0624439 -0.0532484 0.0844018 0.0605806 
-0.0544466 0.0780641 0.0583086 -0.055557 0.0717626 0.0560193 0.019576 0.130618 0.0681343 
0.00999751 0.134532 0.0711893 -0.000367208 0.137465 0.0740396 -0.0114192 0.135875 0.0754935 
-0.0226473 0.133125 0.0765894 -0.0322407 0.126679 0.0761373 -0.0415152 0.119512 0.0753832 
-0.0479022 0.110954 0.0735013 -0.0538863 0.102203 0.071462 -0.0571452 0.0939109 0.0688016 
-0.0601619 0.0856599 0.066086 -0.0611301 0.0786655 0.063117 -0.0620111 0.0717245 0.0601372 
0.0256629 0.13815 0.0817157 0.0135223 0.143011 0.0855932 0.000250934 0.146701 0.0890885 
-0.0138068 0.144564 0.0902213 -0.0280661 0.140933 0.0907485 -0.0395917 0.132806 0.0890283 
-0.0505838 0.123802 0.0868697 -0.0573425 0.113611 0.083498 -0.0635104 0.103254 0.0799571 
-0.0661783 0.0939606 0.0760622 -0.068535 0.0847616 0.0721358 -0.0690583 0.077323 0.0682746 
-0.0695035 0.0699594 0.0644161 0.0322766 0.144158 0.0962377 0.0173597 0.149939 0.10109 
0.000906833 0.154376 0.105362 -0.0164517 0.151695 0.106097 -0.0340423 0.147188 0.105925 
-0.0475989 0.137438 0.102702 -0.0603682 0.126666 0.0988836 -0.067393 0.114983 0.0938315 
-0.0736162 0.103173 0.0886073 -0.0755536 0.0930402 0.0833872 -0.07711 0.0830561 0.0781675 
-0.0771281 0.0753044 0.0733853 -0.0770807 0.0676476 0.0686217 0.0409454 0.144224 0.114429 
0.0224159 0.150815 0.120851 0.00170998 0.155966 0.126411 -0.0200998 0.152749 0.126447 
-0.0421926 0.147385 0.125068 -0.0581654 0.136243 0.119427 -0.0729439 0.123973 0.112954 
-0.0798235 0.11135 0.105478 -0.0856008 0.0986772 0.0978624 -0.0862639 0.0883364 0.0909638 
-0.0864725 0.0782029 0.0841289 -0.0857502 0.0706485 0.0783133 -0.0849884 0.0632038 0.072541 
0.0498421 0.140347 0.133051 0.0276081 0.147334 0.14124 0.00249741 0.152856 0.148275 
-0.0239389 0.149238 0.147507 -0.050715 0.143275 0.144738 -0.0690751 0.131309 0.136409 
-0.085793 0.118172 0.126996 -0.0923644 0.105201 0.116956 -0.09752 0.0922526 0.106828 
-0.0968075 0.0821111 0.0982356 -0.0955734 0.0722192 0.0897793 -0.0940875 0.0650981 0.0829569 
-0.0925908 0.0580949 0.076204 -0.000892408 0.0739432 0.0226524 -0.00252768 0.0753 0.0233877 
-0.00425761 0.0764969 0.0242746 -0.00638016 0.0769981 0.0254949 -0.00860337 0.0773209 0.0268005 
-0.0111667 0.0768313 0.0281584 -0.0137963 0.0761833 0.0295264 -0.0165639 0.0747565 0.0306588 
-0.0193507 0.073221 0.0317583 -0.02201 0.0710772 0.0324387 -0.0246579 0.0688794 0.0330818 
-0.0259683 0.0663132 0.0332551 -0.0272218 0.0637313 0.0334084 0.000697529 0.0777314 0.0235309 
-0.00129862 0.0791903 0.0244539 -0.00341822 0.0804541 0.0255491 -0.00599507 0.0808853 0.0270032 
-0.00868914 0.081103 0.0285493 -0.0117261 0.0803872 0.0301112 -0.01483 0.0794893 0.0316761 
-0.0180027 0.0777439 0.0329224 -0.0211851 0.0758801 0.0341243 -0.0241219 0.0734 0.0348129 
-0.0270368 0.070865 0.0354558 -0.0284522 0.0679979 0.0355525 -0.0298037 0.0651167 0.035626 
0.00231189 0.0817156 0.0244792 -5.70995e-05 0.0832829 0.0255918 -0.00257925 0.0846177 0.0268966 
-0.00562331 0.0849735 0.0285834 -0.00880119 0.0850782 0.0303681 -0.0123216 0.0841206 0.0321301 
-0.0159088 0.0829557 0.0338875 -0.0194909 0.0808713 0.0352422 -0.0230723 0.0786586 0.0365406 
-0.0262859 0.0758225 0.0372313 -0.0294668 0.072931 0.0378679 -0.0309855 0.0697475 0.0378825 
-0.0324335 0.0665515 0.0378707 0.00449996 0.0903045 0.0270653 0.00147711 0.0921305 0.0284125 
-0.00175029 0.093632 0.0299571 -0.00556515 0.0937847 0.0318499 -0.00953063 0.0935915 0.0338321 
-0.0137631 0.0920243 0.0357017 -0.0180477 0.090189 0.0375494 -0.0221389 0.0872885 0.0388796 
-0.0262032 0.0842394 0.0401375 -0.0296749 0.0805902 0.0406875 -0.0330938 0.0768877 0.0411745 
-0.03468 0.0730203 0.0409772 -0.0361882 0.069146 0.0407507 0.00676378 0.0990413 0.0298699 
0.00304803 0.10114 0.0314566 -0.000927465 0.102818 0.0332431 -0.00555567 0.102756 0.035334 
-0.0103512 0.102248 0.037503 -0.0153243 0.10004 0.0394626 -0.020332 0.0975004 0.0413813 
-0.0249393 0.0937502 0.0426656 -0.0294908 0.089831 0.0438614 -0.0332112 0.0853456 0.0442508 
-0.0368578 0.0808098 0.0445685 -0.0385035 0.076248 0.0441436 -0.0400641 0.071685 0.0436871 
0.00987978 0.109443 0.035132 0.00503201 0.111971 0.0370133 -0.000173663 0.113937 0.0390658 
-0.0060939 0.113533 0.0412654 -0.0121974 0.112522 0.0435027 -0.0182314 0.10932 0.045352 
-0.0242519 0.10569 0.0471256 -0.0294537 0.100711 0.0481233 -0.0345414 0.0955441 0.0490128 
-0.0384057 0.0899621 0.0490192 -0.0421613 0.0843432 0.0489471 -0.0437782 0.078967 0.0481183 
-0.0453042 0.0736011 0.0472573 0.0131826 0.119966 0.0408189 0.00711154 0.122966 0.0430088 
0.000571891 0.125254 0.0453349 -0.00674511 0.124487 0.0476229 -0.0142614 0.122937 0.0499012 
-0.0214176 0.118672 0.0515945 -0.0285034 0.113878 0.0531737 -0.0342997 0.107609 0.0538343 
-0.0399162 0.101134 0.0543667 -0.0438883 0.0944283 0.0539493 -0.0477142 0.0877015 0.0534475 
-0.049279 0.0815104 0.052187 -0.0507476 0.0753419 0.0508941 0.0178245 0.131363 0.0495495 
0.00987595 0.135133 0.0521495 0.00125835 0.137987 0.0548037 -0.00820598 0.136705 0.0570354 
-0.0178874 0.134363 0.0591588 -0.0266036 0.128546 0.0603679 -0.0351314 0.122051 0.0613987 
-0.0415221 0.114053 0.0613603 -0.0476145 0.105845 0.0611726 -0.0514355 0.0978168 0.0600389 
-0.0550546 0.0898046 0.058821 -0.0564001 0.0827947 0.0569294 -0.0576487 0.0758275 0.0550091 
0.0228798 0.142536 0.0589336 0.0128712 0.14716 0.0619895 0.00195657 0.150656 0.0650054 
-0.00988303 0.148825 0.0671415 -0.0219598 0.145627 0.0690519 -0.0323436 0.138149 0.0696747 
-0.042397 0.129836 0.0700462 -0.0493413 0.120049 0.0692087 -0.0558518 0.110057 0.0682025 
-0.0594242 0.10072 0.0662868 -0.0627354 0.0914406 0.0642902 -0.0638101 0.0836573 0.0617328 
-0.0647897 0.0759376 0.0591515 0.0300541 0.152566 0.071666 0.0170496 0.158466 0.075413 
0.00271497 0.162997 0.0789635 -0.012668 0.160437 0.080802 -0.0283197 0.15606 0.0822016 
-0.0409221 0.146363 0.0817143 -0.0529294 0.135629 0.0808587 -0.0602192 0.123752 0.0787096 
-0.0668508 0.111716 0.07638 -0.0696749 0.101135 0.073346 -0.0721605 0.0906833 0.0702495 
-0.0727015 0.082358 0.0668485 -0.0731597 0.0741231 0.0634345 0.0379627 0.160979 0.0852392 
0.0216685 0.168166 0.0898051 0.0035339 0.173763 0.0939994 -0.0158022 0.170461 0.0954632 
-0.0354464 0.164876 0.0962267 -0.0503956 0.152982 0.094415 -0.0644287 0.139857 0.0921008 
-0.0719127 0.126029 0.0884718 -0.078483 0.112103 0.0846593 -0.0803733 0.100459 0.0804302 
-0.0818477 0.0890176 0.076164 -0.0817776 0.0802988 0.071897 -0.0816419 0.0716959 0.06763 
0.0487348 0.16309 0.102092 0.0280056 0.171603 0.107974 0.00458893 0.178388 0.113239 
-0.0202986 0.174286 0.114027 -0.0455633 0.167392 0.113666 -0.0633598 0.153381 0.109694 
-0.0796989 0.137981 0.105019 -0.0867874 0.122745 0.0992533 -0.0925851 0.107532 0.0933358 
-0.0928182 0.0955281 0.0876113 -0.0925567 0.0838092 0.0819039 -0.0915745 0.0752764 0.0766837 
-0.0905616 0.0668792 0.0714843 0.0600094 0.160407 0.119373 0.0346573 0.169699 0.126757 
0.00566598 0.177218 0.13327 -0.0251091 0.172494 0.133266 -0.0563415 0.164631 0.13159 
-0.076965 0.149243 0.12519 -0.0955184 0.132387 0.117868 -0.101963 0.116486 0.109831 
-0.106718 0.100719 0.101694 -0.105141 0.0888441 0.094462 -0.103001 0.0773157 0.0873102 
-0.101071 0.069243 0.0811662 -0.0991493 0.0613173 0.075065 -0.000396222 0.0746841 0.0186714 
-0.00173692 0.0762326 0.0194475 -0.00318118 0.0776439 0.020438 -0.00513634 0.0783902 0.0219206 
-0.0072225 0.078966 0.0235295 -0.00980333 0.0786954 0.0252558 -0.0124807 0.0782596 0.027005 
-0.0154191 0.076961 0.0284929 -0.018394 0.075542 0.0299444 -0.0212973 0.0734173 0.0309012 
-0.0241943 0.0712298 0.031814 -0.025639 0.0685936 0.0321721 -0.0270219 0.0659384 0.0325065 
0.00135065 0.0789127 0.0186514 -0.00031452 0.0805752 0.0196395 -0.00211494 0.0820613 0.0208806 
-0.00451798 0.0827304 0.0226818 -0.00707552 0.08319 0.0246267 -0.0101593 0.0826685 0.0266627 
-0.0133457 0.0819556 0.0287165 -0.0167388 0.0803028 0.0304093 -0.0201608 0.078519 0.0320518 
-0.0233903 0.0760195 0.0330784 -0.0266028 0.0734565 0.0340502 -0.0281749 0.0704846 0.0343661 
-0.0296771 0.0674953 0.034654 0.00312476 0.0833656 0.018701 0.00112182 0.085149 0.0199031 
-0.00104909 0.0867143 0.021396 -0.00391435 0.0872997 0.0235148 -0.00695764 0.0876339 0.0257942 
-0.0105552 0.0868436 0.0281364 -0.0142609 0.0858337 0.0304908 -0.0181134 0.0838038 0.0323832 
-0.0219864 0.0816316 0.0342111 -0.0255414 0.0787354 0.0353014 -0.0290681 0.0757749 0.0363261 
-0.0307659 0.0724497 0.0365942 -0.0323858 0.0691089 0.03683 0.00553888 0.0930882 0.0203872 
0.0028856 0.0951572 0.0218464 7.7326e-06 0.0969033 0.023621 -0.00365717 0.0972529 0.0260359 
-0.00752387 0.0972444 0.0286149 -0.0118899 0.0957633 0.0311793 -0.0163533 0.0939948 0.0337408 
-0.0207773 0.0910457 0.0357063 -0.0251958 0.0879318 0.0375886 -0.0290567 0.0841218 0.038601 
-0.0328681 0.08025 0.039536 -0.0346521 0.0761566 0.0396232 -0.0363498 0.0720537 0.0396744 
0.00803753 0.102996 0.0223047 0.00468913 0.105366 0.0240242 0.00105529 0.107304 0.0260805 
-0.00345743 0.107403 0.0287818 -0.0081955 0.107031 0.0316484 -0.0133618 0.104822 0.0344166 
-0.0186115 0.102254 0.0371654 -0.0236143 0.0983466 0.0391826 -0.0285827 0.0942517 0.0410977 
-0.0327388 0.0895009 0.0420123 -0.0368227 0.0846918 0.0428379 -0.038684 0.0798176 0.0427282 
-0.0404508 0.0749406 0.0425786 0.0114872 0.114992 0.0268236 0.00693995 0.117836 0.028839 
0.00199858 0.120083 0.0311788 -0.00390395 0.119772 0.0340582 -0.0100529 0.118804 0.0370759 
-0.0163766 0.115447 0.0398403 -0.0227345 0.111623 0.0425551 -0.0283992 0.106312 0.0443833 
-0.0339673 0.100793 0.0460877 -0.0382972 0.0947974 0.0466806 -0.0425171 0.0887592 0.0471747 
-0.0443553 0.0829626 0.0466863 -0.0460922 0.0771762 0.0461561 0.015147 0.127153 0.0317749 
0.00929526 0.130521 0.0340934 0.00292655 0.133118 0.0367171 -0.00448554 0.132369 0.0397509 
-0.0121651 0.130763 0.0428897 -0.0197148 0.126175 0.0456061 -0.0272392 0.121006 0.04824 
-0.0335644 0.114219 0.049832 -0.0397222 0.107206 0.0512787 -0.044184 0.0999327 0.0515112 
-0.048495 0.092636 0.0516358 -0.0502835 0.0859158 0.0507413 -0.0519646 0.07922 0.0498034 
0.0203124 0.140502 0.0398244 0.0123996 0.144745 0.0424974 0.00374477 0.147979 0.0454085 
-0.00603519 0.146607 0.0484266 -0.0161036 0.144055 0.0514721 -0.0253703 0.137651 0.0538237 
-0.0344804 0.130495 0.05604 -0.0414548 0.12171 0.0570586 -0.0481312 0.112698 0.05791 
-0.0524244 0.103912 0.0575046 -0.0565056 0.0951459 0.0569874 -0.0580527 0.0874939 0.05549 
-0.0594919 0.0798891 0.0539508 0.0259552 0.153665 0.0484598 0.0157674 0.158889 0.0515128 
0.0045697 0.162859 0.0547266 -0.00784447 0.16082 0.0576891 -0.0205705 0.15724 0.060587 
-0.0316765 0.148878 0.0624883 -0.0424664 0.139584 0.064195 -0.0500391 0.128724 0.0645579 
-0.0571629 0.117644 0.0647333 -0.0611729 0.107356 0.0636346 -0.0649062 0.0971377 0.0624226 
-0.0661524 0.0886038 0.0602917 -0.0672928 0.0801415 0.0581216 0.0340444 0.16587 0.0600973 
0.0204859 0.172623 0.0636619 0.005429 0.177835 0.0672571 -0.0109843 0.174899 0.0699587 
-0.0277453 0.169872 0.0724312 -0.0413183 0.158835 0.0734429 -0.0542693 0.146625 0.0741697 
-0.062179 0.133287 0.0734554 -0.0693854 0.119792 0.07254 -0.0725258 0.108055 0.0704648 
-0.0753047 0.0964738 0.0682865 -0.0759459 0.0873144 0.0653651 -0.0764961 0.0782581 0.062412 
0.0430291 0.176359 0.0723877 0.0257413 0.184681 0.076545 0.00635905 0.191201 0.0805897 
-0.0145565 0.187337 0.0829596 -0.0358652 0.180811 0.0849001 -0.0520563 0.167087 0.0848539 
-0.0672486 0.151958 0.08442 -0.0753053 0.136283 0.0825006 -0.0823663 0.120531 0.080374 
-0.0844129 0.107542 0.0772663 -0.0860136 0.0947996 0.0740714 -0.0859582 0.0851806 0.0703461 
-0.0858323 0.0756944 0.0665983 0.0555066 0.180151 0.0872244 0.0330903 0.190202 0.0922915 
0.00756502 0.198283 0.0970505 -0.0198153 0.193379 0.0988124 -0.0476713 0.185145 0.0998059 
-0.0670692 0.168691 0.0980444 -0.0848166 0.150632 0.0957453 -0.0922784 0.133161 0.0921219 
-0.098305 0.115772 0.0883138 -0.0983834 0.102304 0.0839556 -0.097933 0.0891853 0.0795484 
-0.0968242 0.0797532 0.0749671 -0.0956874 0.0704779 0.0703783 0.0687034 0.178433 0.102367 
0.0408915 0.189562 0.108472 0.0088134 0.198655 0.114069 -0.0255009 0.192924 0.115114 
-0.0603886 0.183392 0.114992 -0.0829774 0.165086 0.111291 -0.103166 0.145069 0.106892 
-0.10971 0.126669 0.101459 -0.114351 0.108495 0.0958817 -0.112263 0.0951066 0.0902718 
-0.109578 0.082144 0.0846591 -0.107369 0.0732063 0.0792564 -0.10518 0.0644398 0.0738627 
1.68334e-05 0.0740698 0.0140868 -0.000854157 0.0758442 0.0149127 -0.00183821 0.0775302 0.016036 
-0.00350516 0.0786458 0.0178541 -0.00534722 0.079615 0.0198503 -0.00791166 0.0797213 0.0220315 
-0.010617 0.0796591 0.0242488 -0.0137613 0.078627 0.0261537 -0.0169669 0.0774595 0.0280149 
-0.0201782 0.0754485 0.0292765 -0.0233901 0.0733626 0.0304848 -0.0250046 0.07071 0.0310336 
-0.0265512 0.0680333 0.0315543 0.00191644 0.0787331 0.0128263 0.000804735 0.080632 0.0138998 
-0.000454435 0.0824 0.0153372 -0.00253263 0.0834329 0.0176005 -0.00482083 0.0842773 0.0200756 
-0.00791439 0.0841117 0.0227185 -0.0111651 0.0837491 0.0253941 -0.0148294 0.0823307 0.0276271 
-0.0185514 0.080765 0.0297984 -0.0221587 0.0783424 0.0312079 -0.0257557 0.0758436 0.0325498 
-0.0275305 0.0728197 0.0330975 -0.0292278 0.0697735 0.0336113 0.00384577 0.0836505 0.0116337 
0.0024789 0.0856812 0.0129567 0.000929082 0.0875353 0.0147094 -0.00157595 0.0884778 0.0174176 
-0.0043259 0.0891865 0.0203707 -0.00796048 0.0887288 0.0234723 -0.0117676 0.0880435 0.0266029 
-0.0159574 0.0862132 0.0291592 -0.0202005 0.0842232 0.0316354 -0.0242029 0.0813643 0.033187 
-0.0281839 0.0784283 0.0346564 -0.0301173 0.0750135 0.0351971 -0.0319636 0.0715782 0.0356983 
0.0064735 0.0945399 0.0120353 0.00451185 0.0968721 0.0136509 0.00230648 0.0989102 0.0157519 
-0.000991838 0.099579 0.0188954 -0.00457039 0.0998967 0.0223063 -0.00902525 0.0986706 0.0257988 
-0.0136511 0.0971434 0.0293073 -0.0184929 0.094297 0.0320715 -0.0233649 0.0912666 0.0347318 
-0.027746 0.0873963 0.0362862 -0.0320835 0.0834512 0.0377422 -0.0341345 0.0791821 0.0381389 
-0.0360882 0.0748993 0.0384905 0.0091919 0.105651 0.0126883 0.00658484 0.108299 0.0145972 
0.00366887 0.11053 0.0170435 -0.000475788 0.110907 0.0206101 -0.00493548 0.110809 0.0244638 
-0.0102449 0.108772 0.0283275 -0.01572 0.106357 0.0321932 -0.0212216 0.10245 0.0351437 
-0.0267269 0.0983358 0.0379665 -0.0314749 0.0934238 0.0395035 -0.0361555 0.0884409 0.0409262 
-0.0383143 0.0833035 0.0411618 -0.0403657 0.0781594 0.041347 0.0129303 0.119252 0.0161695 
0.00910846 0.122383 0.0183794 0.00486237 0.124909 0.0211388 -0.000725429 0.124791 0.0249885 
-0.00665724 0.123995 0.0291177 -0.0132066 0.120669 0.0331311 -0.0198764 0.116849 0.0371218 
-0.0261241 0.111386 0.0400162 -0.0323129 0.105694 0.0427576 -0.0372934 0.0994024 0.0440499 
-0.0421665 0.0930572 0.0452133 -0.0443229 0.0868922 0.0450976 -0.0463638 0.0807348 0.0449275 
0.016889 0.133026 0.0200968 0.0117346 0.136689 0.0226041 0.00602571 0.139551 0.0256656 
-0.00113526 0.138908 0.0297689 -0.00866853 0.137367 0.0341394 -0.0165306 0.132664 0.0382608 
-0.0244567 0.127343 0.0423336 -0.0314475 0.120247 0.0451301 -0.0383079 0.112904 0.0477486 
-0.043475 0.105198 0.0487603 -0.0484916 0.09746 0.0496292 -0.0506166 0.0902675 0.049135 
-0.0526186 0.0830982 0.0485827 0.0224267 0.148039 0.0272212 0.0150955 0.15259 0.03 
0.00697295 0.156077 0.0332854 -0.00269309 0.154699 0.0374308 -0.0127549 0.152074 0.0417967 
-0.0224506 0.145362 0.045728 -0.0320749 0.137853 0.0495745 -0.0397882 0.128572 0.0519744 
-0.0472349 0.119043 0.0541725 -0.0522594 0.109681 0.0546471 -0.0570687 0.100334 0.0549685 
-0.0589534 0.0921142 0.0539 -0.0607136 0.0839425 0.0527723 0.0284598 0.162818 0.0348033 
0.01872 0.168371 0.0378438 0.00790626 0.17259 0.0413364 -0.00454981 0.170427 0.0454858 
-0.017427 0.166627 0.0498036 -0.0290849 0.157757 0.0534923 -0.0405048 0.147896 0.0570582 
-0.0488835 0.136347 0.0590116 -0.0568379 0.124562 0.06074 -0.061596 0.113559 0.0606392 
-0.06607 0.102626 0.0603757 -0.0676503 0.0934369 0.0587083 -0.0691075 0.0843223 0.056981 
0.037032 0.176396 0.0447311 0.0236948 0.183535 0.0479831 0.00876808 0.18903 0.0515971 
-0.00793823 0.18583 0.0555552 -0.0251008 0.1804 0.0596015 -0.0393793 0.168594 0.0627784 
-0.0530949 0.155543 0.0657855 -0.0618466 0.141307 0.0670368 -0.0699057 0.126906 0.0680431 
-0.0737624 0.114339 0.0671708 -0.0772455 0.101936 0.0661315 -0.0781932 0.0920747 0.0637384 
-0.079033 0.0823211 0.0612876 0.0465463 0.188134 0.0549037 0.0292236 0.196914 0.0583483 
0.00967944 0.203766 0.0620611 -0.0118201 0.199491 0.0657807 -0.033821 0.192362 0.0695019 
-0.0508767 0.177594 0.0721068 -0.0669674 0.161335 0.0744938 -0.07588 0.144556 0.0750006 
-0.0837909 0.127703 0.0752451 -0.0865017 0.113788 0.0735851 -0.0887503 0.100133 0.0717557 
-0.0889663 0.0897806 0.0686386 -0.0890959 0.0795685 0.0654668 0.0597344 0.192696 0.0660318 
0.0369128 0.203331 0.0695944 0.010784 0.211858 0.073318 -0.0176266 0.206359 0.0766147 
-0.0466223 0.197265 0.0798018 -0.0670661 0.17943 0.0816002 -0.0858413 0.159891 0.0831276 
-0.0940873 0.141127 0.082725 -0.100864 0.122472 0.082053 -0.101476 0.108041 0.0795417 
-0.101539 0.0939856 0.0768669 -0.100638 0.0838519 0.0730328 -0.0996947 0.073885 0.0691493 
0.0737145 0.191375 0.0770421 0.0450886 0.203168 0.0806842 0.011908 0.212781 0.0843806 
-0.0239468 0.206288 0.0871875 -0.0604871 0.195664 0.0897663 -0.0842959 0.175703 0.0906929 
-0.10562 0.153921 0.0912972 -0.112831 0.134097 0.0899699 -0.118071 0.114546 0.088373 
-0.116359 0.100193 0.0850401 -0.114028 0.086302 0.0815529 -0.111955 0.0767156 0.0770491 
-0.109893 0.0673123 0.072502 0.000372812 0.0724878 0.00945212 8.59496e-05 0.0745181 0.010332 
-0.00032386 0.0765324 0.0116023 -0.00163114 0.0781225 0.0137857 -0.00316855 0.0796038 0.0162033 
-0.00570811 0.0802091 0.018864 -0.0084432 0.0806435 0.0215721 -0.0118259 0.0799723 0.0238975 
-0.015299 0.0791469 0.0261694 -0.0188608 0.0773064 0.027724 -0.0224305 0.0753757 0.0292149 
-0.0242357 0.0727348 0.0299382 -0.0259658 0.0700636 0.0306289 0.00242013 0.077574 0.00675929 
0.00201759 0.0797399 0.00793242 0.0014551 0.0818447 0.00959863 -0.000204263 0.0833501 0.0123863 
-0.00214487 0.0847017 0.0154615 -0.00524285 0.085018 0.0187646 -0.00856663 0.0851323 0.0221122 
-0.0125511 0.0840451 0.0249035 -0.0166278 0.0827901 0.0276171 -0.0206715 0.0805012 0.0294018 
-0.0247122 0.0781204 0.0311039 -0.0267179 0.0750715 0.031867 -0.028637 0.0719942 0.0325902 
0.00449958 0.0829469 0.00413065 0.00396598 0.0852556 0.00559905 0.00323431 0.0874546 0.00766312 
0.00120615 0.0888657 0.0110556 -0.00115443 0.0900749 0.0147888 -0.00482379 0.0900794 0.0187324 
-0.00874851 0.0898489 0.0227171 -0.0133409 0.0883171 0.0259699 -0.0180265 0.0866037 0.0291206 
-0.0225516 0.0838393 0.0311295 -0.0270624 0.0809815 0.0330369 -0.0292668 0.0775028 0.0338336 
-0.0313731 0.0739977 0.0345831 0.00733399 0.0950541 0.00301056 0.00630775 0.0976753 0.00482269 
0.00501905 0.100055 0.00732892 0.00222951 0.10115 0.0113403 -0.000944855 0.101916 0.0157377 
-0.00549057 0.101073 0.0202773 -0.0103038 0.0999168 0.0248447 -0.0156488 0.0972724 0.0284561 
-0.021068 0.0944203 0.0319341 -0.0260641 0.0905449 0.0340289 -0.0310226 0.0865785 0.0360007 
-0.0333844 0.0821558 0.0366879 -0.0356357 0.0777137 0.0373204 0.0102644 0.107423 0.0021744 
0.00868821 0.11037 0.0043284 0.00678067 0.112937 0.00727033 0.00317189 0.113693 0.011884 
-0.00087311 0.113984 0.0169262 -0.00633144 0.112246 0.0220395 -0.0120655 0.110113 0.0271666 
-0.0181708 0.106307 0.0311138 -0.0243279 0.102269 0.0348963 -0.029782 0.0972492 0.0370557 
-0.0351736 0.0921426 0.0390708 -0.0376822 0.0867603 0.0396301 -0.0400681 0.0813661 0.0401275 
0.0142744 0.122743 0.00453232 0.011504 0.126158 0.00700753 0.00828217 0.12898 0.0103124 
0.00320322 0.129136 0.0153407 -0.00235191 0.12861 0.0208109 -0.0091309 0.125437 0.0262455 
-0.0161487 0.121749 0.0316732 -0.0231012 0.116238 0.0356999 -0.0300446 0.110473 0.0395313 
-0.0358102 0.10394 0.0415155 -0.0414712 0.0973374 0.0433356 -0.0440074 0.0908184 0.0435618 
-0.0464107 0.0843029 0.0437202 0.0185087 0.138218 0.00738523 0.0144134 0.142147 0.0101671 
0.00973183 0.14526 0.0138109 0.00304454 0.144787 0.0192145 -0.00415703 0.143393 0.0250692 
-0.0123315 0.138697 0.030782 -0.0206958 0.133357 0.0364672 -0.0284911 0.126065 0.0405343 
-0.0362072 0.1185 0.0443756 -0.0422353 0.110419 0.0461495 -0.0481134 0.102293 0.0477397 
-0.0506462 0.0946392 0.047604 -0.0530366 0.0870059 0.0473949 0.02435 0.154807 0.0137857 
0.017994 0.15958 0.0167696 0.0108101 0.16325 0.0205808 0.00152412 0.161918 0.0260768 
-0.00830086 0.159304 0.0320049 -0.018407 0.152449 0.0376871 -0.028568 0.144767 0.0433212 
-0.0371751 0.135143 0.0471469 -0.0455655 0.125248 0.0507201 -0.0515044 0.115388 0.0520315 
-0.0572255 0.105531 0.0531419 -0.0595318 0.096759 0.0524385 -0.0616929 0.0880335 0.0516579 
0.0306762 0.17104 0.0205476 0.0218172 0.176764 0.0236907 0.0118435 0.181093 0.027622 
-0.000331976 0.178856 0.0331729 -0.0130719 0.174935 0.039139 -0.025239 0.165777 0.0447674 
-0.0372941 0.155596 0.0503299 -0.0466533 0.143567 0.0538924 -0.0556363 0.131281 0.0571758 
-0.0613577 0.119668 0.0579997 -0.0667892 0.108113 0.058605 -0.0688025 0.0982916 0.0573126 
-0.0706703 0.0885435 0.0559394 0.0394874 0.185449 0.0291616 0.0268834 0.192674 0.0322446 
0.0126465 0.198183 0.0360541 -0.00390832 0.194797 0.0414665 -0.0210575 0.189131 0.04729 
-0.0359471 0.176926 0.0527461 -0.0503957 0.163446 0.0581306 -0.060201 0.148642 0.0613189 
-0.0693584 0.133653 0.0642007 -0.0742046 0.120417 0.0644092 -0.0786675 0.107338 0.0643801 
-0.0800458 0.096815 0.0623896 -0.0812928 0.0864013 0.0603156 0.0491989 0.197843 0.0376341 
0.0324606 0.206613 0.0405452 0.0134559 0.213378 0.0441274 -0.00801888 0.208804 0.0493772 
-0.030127 0.201324 0.0550546 -0.0478904 0.186054 0.0603793 -0.064806 0.169264 0.0656351 
-0.0748383 0.151841 0.0684864 -0.0839102 0.13433 0.0710023 -0.0876302 0.119704 0.0706161 
-0.0908744 0.105335 0.0699721 -0.0915157 0.0943118 0.0672998 -0.0920463 0.0834305 0.0645411 
0.0624217 0.202373 0.0455549 0.0400308 0.212869 0.047858 0.0142901 0.221179 0.0508022 
-0.014213 0.215268 0.0557947 -0.0434243 0.20571 0.0613124 -0.0646514 0.187296 0.0666646 
-0.0843205 0.167154 0.0719845 -0.0937252 0.147726 0.0746442 -0.101698 0.128397 0.0769328 
-0.103313 0.113286 0.076033 -0.104363 0.09855 0.0748498 -0.10387 0.0878042 0.0715592 
-0.103311 0.0772282 0.0681789 0.0763617 0.200876 0.0529557 0.0480174 0.212395 0.0544577 
0.0150792 0.221659 0.0565767 -0.0209759 0.214635 0.0612779 -0.0578301 0.203435 0.0666413 
-0.0824818 0.182821 0.0720949 -0.104752 0.16037 0.077566 -0.113143 0.139869 0.0801031 
-0.119598 0.119641 0.0822308 -0.118872 0.104654 0.0808816 -0.117508 0.0901322 0.0792233 
-0.115823 0.0800079 0.0753799 -0.114125 0.0700707 0.0714436 0.00061107 0.0689104 0.00471407 
0.00114432 0.0712579 0.00565683 0.00154394 0.0737109 0.00710278 0.000743712 0.0759928 0.0097134 
-0.000364175 0.078231 0.0126226 -0.00286134 0.0795873 0.0158134 -0.00562956 0.0807717 0.019059 
-0.00931798 0.0806565 0.0218124 -0.0131348 0.0803601 0.0244971 -0.0171343 0.078807 0.0263204 
-0.0211501 0.0771422 0.0280671 -0.0231892 0.0745707 0.0289316 -0.0251442 0.0719607 0.0297587 
0.00279575 0.0743951 0.000193191 0.0034235 0.0768905 0.00149533 0.00387825 0.0794455 0.00345747 
0.00283157 0.0816475 0.00689801 0.00139991 0.0837591 0.0107176 -0.00169135 0.084817 0.0147911 
-0.00510641 0.0856694 0.018914 -0.00951213 0.0851128 0.0223007 -0.0140561 0.0843595 0.0255847 
-0.0186572 0.0823218 0.0277284 -0.0232634 0.0801699 0.0297707 -0.025558 0.0771516 0.0307154 
-0.0277542 0.0740965 0.0316135 0.00501481 0.0802042 -0.00427097 0.00572119 0.0828543 -0.00260669 
0.00621406 0.0855138 -0.000125228 0.00490337 0.0876241 0.00414782 0.00313022 0.0895936 0.00888025 
-0.000569301 0.0903274 0.0138362 -0.00464469 0.0908201 0.0188357 -0.0097749 0.0897907 0.022852 
-0.0150523 0.0885489 0.0267311 -0.0202551 0.0859967 0.0291891 -0.0254513 0.0833281 0.0315209 
-0.0279997 0.0798387 0.0325393 -0.0304355 0.0763144 0.0335019 0.00804157 0.0936344 -0.00740186 
0.00845356 0.096598 -0.00531032 0.0085851 0.0994233 -0.0022364 0.00659762 0.101165 0.00292996 
0.00406681 0.102629 0.00863284 -0.000573959 0.102435 0.014465 -0.0056264 0.101917 0.0203224 
-0.0116505 0.0996784 0.0248809 -0.0178102 0.0972003 0.0292582 -0.0236165 0.093434 0.0318902 
-0.0293915 0.0895532 0.0343669 -0.0321546 0.0850224 0.0353057 -0.0347895 0.080464 0.036179 
0.0111679 0.107378 -0.0101908 0.0112198 0.110663 -0.00767645 0.01092 0.113654 -0.0040213 
0.00819322 0.114996 0.0020145 0.00484412 0.115916 0.0086607 -0.000775146 0.11474 0.0153409 
-0.00683733 0.113154 0.0220278 -0.0137626 0.109655 0.0271023 -0.0208084 0.105889 0.0319519 
-0.0272043 0.100873 0.0347337 -0.0335424 0.0957465 0.0373316 -0.036509 0.090157 0.0381699 
-0.039332 0.0845477 0.0389332 0.0154144 0.124647 -0.00913238 0.0143676 0.12834 -0.00624579 
0.0128487 0.131492 -0.00213558 0.00867899 0.132091 0.00450097 0.0038296 0.132035 0.0117853 
-0.00318728 0.129271 0.0189963 -0.010627 0.125978 0.0261929 -0.0185359 0.120633 0.0314886 
-0.0265102 0.115001 0.0365191 -0.0333385 0.108337 0.0391802 -0.040065 0.101581 0.0416306 
-0.043108 0.0947376 0.0421351 -0.0459943 0.0878906 0.0425567 0.019876 0.142003 -0.00745771 
0.017586 0.146139 -0.00422477 0.0146898 0.149477 0.000300076 0.0089352 0.149301 0.00747946 
0.00244769 0.148223 0.0153395 -0.00603946 0.143793 0.0230281 -0.0149167 0.138708 0.0306833 
-0.023803 0.131449 0.0361571 -0.0326907 0.123888 0.0413265 -0.0399009 0.11555 0.0438275 
-0.0469621 0.107142 0.0460914 -0.0500495 0.0990516 0.0462286 -0.0529678 0.0909743 0.0462752 
0.0258795 0.159988 -0.00136617 0.0213101 0.164803 0.00202727 0.0159033 0.168513 0.006677 
0.00754622 0.167337 0.0139842 -0.00156725 0.164909 0.0219728 -0.0120454 0.158249 0.029759 
-0.0227898 0.150765 0.0375056 -0.0326102 0.141116 0.0428485 -0.0423016 0.131166 0.0478559 
-0.0495324 0.120967 0.049915 -0.0565444 0.110746 0.051712 -0.0594458 0.101454 0.0512421 
-0.0621723 0.0922017 0.0506757 0.0322982 0.177342 0.0050561 0.0252128 0.182909 0.00853919 
0.0170195 0.187064 0.0132394 0.00578988 0.184855 0.020634 -0.00621827 0.181015 0.0287195 
-0.0188062 0.172026 0.0366018 -0.0315072 0.162032 0.0444443 -0.0422064 0.149957 0.0496542 
-0.0526264 0.137592 0.0544968 -0.0597552 0.12558 0.0560945 -0.0665914 0.1136 0.0574039 
-0.0692415 0.103191 0.056304 -0.0717136 0.0928481 0.0551016 0.0408446 0.191465 0.0131732 
0.03003 0.198154 0.0163828 0.0176374 0.203126 0.0207521 0.00215077 0.199715 0.028027 