# vtk DataFile Version 2.0
vtk output
ASCII
DATASET RECTILINEAR_GRID
DIMENSIONS 13 13 13
X_COORDINATES 13 float
-10 -9.79167 -9.58333 -9.375 -9.16667 -8.95833 -8.75 -8.54167 -8.33333 
-8.125 -7.91667 -7.70833 -7.5 
Y_COORDINATES 13 float
2.5 2.70833 2.91667 3.125 3.33333 3.54167 3.75 3.95833 4.16667 
4.375 4.58333 4.79167 5 
Z_COORDINATES 13 float
-5 -4.79167 -4.58333 -4.375 -4.16667 -3.95833 -3.75 -3.54167 -3.33333 
-3.125 -2.91667 -2.70833 -2.5 
POINT_DATA 2197
VECTORS grad float
0.0258457 -0.0551246 0.0793638 0.020109 -0.0583788 0.0856536 0.0140823 -0.0616028 0.0919192 
0.00123967 -0.0641179 0.0976148 -0.0117654 -0.0664302 0.103243 -0.0265988 -0.0664608 0.108117 
-0.041381 -0.0659039 0.112922 -0.0557962 -0.0611366 0.117237 -0.0694421 -0.0553089 0.121513 
-0.079145 -0.0440463 0.125588 -0.0868088 -0.0317096 0.129454 -0.0865201 -0.0151834 0.132499 
-0.0830859 0.00109802 0.134585 0.0228247 -0.0589195 0.0827535 0.0173601 -0.0616518 0.0888415 
0.011634 -0.0643325 0.0948923 -0.000234874 -0.0658 0.100068 -0.0121888 -0.0670448 0.105134 
-0.0250998 -0.0657838 0.108982 -0.0378582 -0.0639925 0.112661 -0.0495227 -0.0584003 0.115138 
-0.0604363 -0.051983 0.117395 -0.067501 -0.0413367 0.118523 -0.0729249 -0.0300182 0.119248 
-0.0719499 -0.0160774 0.118406 -0.0686977 -0.00260658 0.116672 0.0204265 -0.0611956 0.0830645 
0.0153566 -0.0635897 0.0888043 0.0100541 -0.0659252 0.0945007 -0.000711353 -0.0668839 0.0991766 
-0.0115133 -0.067629 0.103723 -0.0227262 -0.065971 0.106814 -0.0337485 -0.0638576 0.109682 
-0.043406 -0.0584811 0.110954 -0.0523896 -0.0524638 0.111908 -0.0579195 -0.0431628 0.111232 
-0.0621373 -0.0334265 0.110064 -0.0612379 -0.0219921 0.106979 -0.0586414 -0.0110753 0.103059 
0.0181745 -0.0628696 0.0826277 0.0135004 -0.0649616 0.0880134 0.00862119 -0.0669908 0.0933515 
-0.00107692 -0.0675459 0.0975696 -0.0107705 -0.0679004 0.101643 -0.0204135 -0.065997 0.104085 
-0.0298399 -0.06371 0.106261 -0.0377138 -0.0586727 0.106529 -0.0449938 -0.0531563 0.106397 
-0.0492305 -0.0451847 0.104223 -0.0524543 -0.0369725 0.101482 -0.051728 -0.0278225 0.0965321 
-0.049817 -0.0192115 0.0907884 0.0162539 -0.0631788 0.0804961 0.0119782 -0.0650505 0.0855144 
0.00752133 -0.0668617 0.0904853 -0.00119109 -0.0672518 0.0943396 -0.00987509 -0.0674627 0.0980459 
-0.0182392 -0.065658 0.100087 -0.026387 -0.0635334 0.101843 -0.0329839 -0.0591156 0.101559 
-0.0390738 -0.0543287 0.100834 -0.0425645 -0.0476503 0.0978546 -0.0452751 -0.040831 0.0942664 
-0.0449431 -0.0334618 0.0883045 -0.0437851 -0.026594 0.0815621 0.0144671 -0.062876 0.0779334 
0.0105693 -0.0645281 0.0826024 0.00651231 -0.0661229 0.0872253 -0.00128424 -0.0663731 0.0907625 
-0.00903308 -0.0664656 0.0941518 -0.0162451 -0.0647845 0.095877 -0.0232451 -0.062841 0.0973054 
-0.0287262 -0.0590176 0.0966065 -0.0337818 -0.0549183 0.0954347 -0.0366558 -0.049405 0.0918397 
-0.0389571 -0.0438273 0.0875993 -0.0390246 -0.037999 0.0808419 -0.0385823 -0.0326261 0.0733075 
0.012932 -0.0614216 0.0745595 0.00937365 -0.062855 0.078913 0.00567429 -0.0642364 0.0832237 
-0.00133781 -0.0643942 0.0865319 -0.00829164 -0.0644158 0.0896982 -0.01459 -0.0629046 0.0912695 
-0.0206887 -0.0611774 0.0925437 -0.0253573 -0.0579013 0.0916882 -0.029672 -0.0544108 0.0903433 
-0.0321727 -0.0498212 0.0864905 -0.0342604 -0.0452011 0.0819656 -0.0347374 -0.0404619 0.0748193 
-0.0349403 -0.0361164 0.0668818 0.0115795 -0.0594255 0.0709684 0.00833454 -0.060619 0.075022 
0.00496484 -0.0617655 0.0790369 -0.00133547 -0.0618072 0.0821403 -0.00756972 -0.0617324 0.0851092 
-0.0130608 -0.0603466 0.0865661 -0.0183655 -0.0587853 0.0877286 -0.0223337 -0.0559659 0.0867817 
-0.0260121 -0.0529835 0.0853343 -0.0282051 -0.049165 0.0813223 -0.0301233 -0.0453392 0.0766163 
-0.0309703 -0.0414848 0.069204 -0.0317464 -0.0379596 0.0609853 0.0105153 -0.0565745 0.0670344 
0.00754257 -0.0574941 0.070813 0.00445841 -0.0583716 0.0745573 -0.00124484 -0.05826 0.0774946 
-0.0068786 -0.0580488 0.0803067 -0.0117306 -0.0567176 0.0817112 -0.0164103 -0.0552426 0.0828291 
-0.0198552 -0.0527373 0.0818938 -0.0230625 -0.050104 0.0804555 -0.0250515 -0.0468156 0.0764397 
-0.0268701 -0.0435264 0.0717161 -0.0280246 -0.0402341 0.0642319 -0.0292599 -0.0372021 0.0559245 
0.00970915 -0.0533372 0.062997 0.00698586 -0.0539611 0.0664982 0.00416283 -0.0545472 0.0699691 
-0.00100383 -0.0542476 0.0727288 -0.00609936 -0.0538634 0.0753724 -0.0103948 -0.0525269 0.0767098 
-0.0145318 -0.0510741 0.0777702 -0.0175333 -0.0487875 0.0768454 -0.0203418 -0.0464026 0.0754208 
-0.0221604 -0.0435139 0.0714342 -0.0238934 -0.0406266 0.0667348 -0.0252925 -0.0377444 0.0592552 
-0.0268915 -0.0350534 0.0509442 0.0092472 -0.049585 0.0588216 0.00674284 -0.049884 0.0620422 
0.0041484 -0.050149 0.0652361 -0.000562293 -0.0496152 0.067803 -0.00520265 -0.049009 0.0702624 
-0.00905171 -0.0475873 0.0715133 -0.0127557 -0.0460709 0.0724989 -0.0154202 -0.0438762 0.0715832 
-0.0179261 -0.0416051 0.0701781 -0.0196195 -0.0389425 0.0662648 -0.0212855 -0.0362775 0.0616454 
-0.0228453 -0.033603 0.0542725 -0.0246806 -0.0310496 0.0460716 0.0091001 -0.0456632 0.0546009 
0.00679709 -0.0456342 0.0575217 0.00441253 -0.0455744 0.0604187 0.000111527 -0.0447922 0.0627548 
-0.00412125 -0.043948 0.0649912 -0.00758648 -0.0424067 0.0661048 -0.0109196 -0.0407895 0.0669657 
-0.0133057 -0.0386275 0.0660162 -0.0155611 -0.0364075 0.0645937 -0.0171465 -0.0338905 0.060747 
-0.0187444 -0.0313658 0.0562127 -0.0203909 -0.0288117 0.0489961 -0.0223535 -0.0263115 0.0409694 
0.00930889 -0.0415496 0.050329 0.00718741 -0.0411892 0.0529285 0.00499154 -0.0408007 0.055506 
0.00104793 -0.0397536 0.0575685 -0.00283107 -0.0386533 0.0595376 -0.00598321 -0.0369538 0.0604566 
-0.00901557 -0.0351935 0.0611366 -0.0111896 -0.0329973 0.0601048 -0.0132532 -0.0307575 0.058623 
-0.0147504 -0.0282951 0.0548356 -0.0162788 -0.0258184 0.0503917 -0.0179284 -0.0232858 0.0433877 
-0.0198953 -0.0207435 0.035608 0.0325261 -0.0509457 0.0923311 0.0266253 -0.054338 0.0998825 
0.020426 -0.057715 0.107387 0.00721004 -0.0607305 0.113779 -0.00616468 -0.0635902 0.120045 
-0.021326 -0.0646961 0.124879 -0.036413 -0.0653274 0.129568 -0.0509683 -0.0625575 0.133209 
-0.0647734 -0.0589378 0.136754 -0.074734 -0.0509631 0.139812 -0.0828578 -0.0421511 0.142656 
-0.0838184 -0.0300738 0.144669 -0.0820603 -0.018186 0.14581 0.0292768 -0.0572592 0.0943228 
0.0235661 -0.0602924 0.10154 0.0175799 -0.0632839 0.1087 0.005123 -0.0652963 0.114525 
-0.00742609 -0.0671188 0.120192 -0.0210119 -0.0668047 0.124075 -0.0344412 -0.0660414 0.127729 
-0.0467498 -0.0620599 0.129739 -0.0583304 -0.0573992 0.131493 -0.0661805 -0.0492577 0.13194 
-0.0725163 -0.0405883 0.132006 -0.0729471 -0.0298603 0.130584 -0.0713349 -0.0195324 0.128354 
0.0264799 -0.0612881 0.0931413 0.0211235 -0.0640516 0.0998374 0.0155178 -0.0667625 0.106473 
0.00405494 -0.0682391 0.111697 -0.00745787 -0.0695231 0.11675 -0.019533 -0.0686411 0.119883 
-0.0314244 -0.0673593 0.122744 -0.0419999 -0.0632126 0.123668 -0.0519232 -0.058526 0.124253 
-0.0585035 -0.0510722 0.123107 -0.0638528 -0.0432786 0.121502 -0.0644013 -0.0341602 0.118103 
-0.0633898 -0.0255052 0.113949 0.0238181 -0.0644721 0.0912308 0.018829 -0.0669799 0.0973979 
0.0136159 -0.0694276 0.103503 0.00314045 -0.0704626 0.108158 -0.00734931 -0.0713076 0.112634 
-0.0180002 -0.0700162 0.115106 -0.0284504 -0.0683743 0.117277 -0.0374632 -0.0642207 0.117289 
-0.0459032 -0.0596506 0.116897 -0.0514067 -0.052946 0.114435 -0.0559417 -0.0460573 0.111449 
-0.0566993 -0.0384507 0.106419 -0.056331 -0.0313452 0.100677 0.0214624 -0.0657407 0.0876679 
0.0168701 -0.0680248 0.093287 0.0120773 -0.0702487 0.0988465 0.00257404 -0.0710558 0.103005 
-0.00692264 -0.0716875 0.106988 -0.0163454 -0.0703459 0.109007 -0.0255737 -0.068703 0.110716 
-0.0334098 -0.0649008 0.110214 -0.0407607 -0.0607699 0.109279 -0.0456249 -0.0549542 0.106126 
-0.049736 -0.0490363 0.102417 -0.0509096 -0.0427198 0.096542 -0.0512808 -0.0368843 0.0899708 
0.0192577 -0.066218 0.0837494 0.0150489 -0.0682712 0.0888465 0.0106615 -0.0702654 0.0938869 
0.00207787 -0.0708732 0.0975964 -0.00648241 -0.0713214 0.101137 -0.0147799 -0.0699739 0.102778 
-0.0228931 -0.068371 0.104108 -0.0296853 -0.0649366 0.10321 -0.0360758 -0.0612486 0.101859 
-0.0404076 -0.0562603 0.0981838 -0.0441812 -0.0512323 0.0939271 -0.0457783 -0.0460496 0.0874027 
-0.0468633 -0.0413165 0.0801914 0.0173371 -0.065206 0.0791616 0.0134869 -0.0670144 0.0837856 
0.00947688 -0.0687679 0.0883577 0.00171393 -0.0692301 0.0917078 -0.00601663 -0.069551 0.0948992 
-0.0133828 -0.0682813 0.0963066 -0.0205814 -0.0667954 0.0974106 -0.0265798 -0.0637597 0.0963412 
-0.032252 -0.0605213 0.0948129 -0.0362525 -0.0562445 0.0909325 -0.0398519 -0.0519543 0.0864556 
-0.0418866 -0.0476117 0.0796521 -0.0436367 -0.043665 0.0721557 0.0156197 -0.0635433 0.0744717 
0.0121044 -0.0650885 0.0786544 0.00844643 -0.0665831 0.08279 0.00143784 -0.0668886 0.085816 
-0.00553175 -0.0670701 0.0886941 -0.0120625 -0.0658573 0.0899095 -0.0184427 -0.0644634 0.0908313 
-0.0237444 -0.0617721 0.0896484 -0.0287881 -0.0589207 0.0880053 -0.0325092 -0.0552491 0.0840039 
-0.0359666 -0.0515799 0.079395 -0.0383955 -0.0479203 0.0724169 -0.0407389 -0.0445961 0.0647387 
0.0142233 -0.0608531 0.0696205 0.0110055 -0.0621061 0.0734121 0.00765943 -0.0633133 0.0771615 
0.00130044 -0.0634443 0.0799192 -0.00501672 -0.0634675 0.0825407 -0.0108634 -0.0622785 0.0836299 
-0.0165769 -0.0609372 0.0844382 -0.0213357 -0.0585046 0.0832335 -0.0258927 -0.0559411 0.0815741 
-0.0294159 -0.0527068 0.0775845 -0.0327822 -0.0494745 0.0729831 -0.035537 -0.0462498 0.0659955 
-0.03836 -0.0432892 0.0582985 0.0130929 -0.0577208 0.0647988 0.0101483 -0.0586669 0.0682183 
0.00708836 -0.0595718 0.0716002 0.00131686 -0.0595067 0.0740988 -0.00441145 -0.0593486 0.076472 
-0.00965382 -0.0581431 0.0774363 -0.014779 -0.0568105 0.0781331 -0.0190645 -0.0545668 0.0769129 
-0.0231962 -0.0522162 0.0752469 -0.0265398 -0.0493175 0.0712967 -0.0298139 -0.0464151 0.0667363 
-0.0328165 -0.0434989 0.0597961 -0.0360093 -0.0407716 0.0521433 0.0123174 -0.053999 0.0600167 
0.00961364 -0.0546187 0.0630894 0.00680523 -0.0552012 0.0661286 0.00153835 -0.0549116 0.06838 
-0.00368586 -0.0545415 0.0705163 -0.00843008 -0.0532656 0.0713575 -0.0130715 -0.0518829 0.0719454 
-0.0169767 -0.0497354 0.0707179 -0.0207649 -0.0474977 0.0690583 -0.0239535 -0.0447987 0.0651841 
-0.0271335 -0.0420839 0.0607095 -0.03028 -0.0393074 0.053893 -0.0336963 -0.0366399 0.0463684 
0.0118508 -0.0500781 0.0553199 0.00936667 -0.0503728 0.0580496 0.00678742 -0.0506342 0.0607491 
0.00197304 -0.0501119 0.0627404 -0.00280011 -0.0495202 0.0646257 -0.00710947 -0.0481482 0.065317 
-0.0113289 -0.0466871 0.0657694 -0.0149041 -0.0445881 0.0645084 -0.018391 -0.042413 0.0628323 
-0.0214251 -0.0398483 0.0590289 -0.0244918 -0.0372546 0.0546421 -0.0276858 -0.0345475 0.0479799 
-0.0311929 -0.0318713 0.0406247 0.0117333 -0.0459324 0.0507197 0.00944495 -0.0459037 0.0531105 
0.00706955 -0.045845 0.0554738 0.00264873 -0.0450809 0.0571904 -0.00173333 -0.0442569 0.0588087 
-0.00567936 -0.0427597 0.0593201 -0.00954655 -0.0411881 0.0596067 -0.0128489 -0.0390838 0.0582826 
-0.0160822 -0.0369141 0.0565642 -0.0189622 -0.03441 0.0528254 -0.0218937 -0.0318624 0.0485286 
-0.0250262 -0.0291449 0.0420556 -0.0284741 -0.0263829 0.0349165 0.0407592 -0.048674 0.107371 
0.034483 -0.0523684 0.116546 0.0278876 -0.0560564 0.12564 0.0137934 -0.0595944 0.132839 
-0.000461308 -0.0630066 0.139814 -0.0165222 -0.0650025 0.144281 -0.0324717 -0.0666072 0.148469 
-0.0476243 -0.0654083 0.150664 -0.0620061 -0.0635275 0.152664 -0.0724374 -0.0581528 0.153668 
-0.0811656 -0.0521314 0.154455 -0.0832523 -0.0435878 0.154396 -0.0829545 -0.0351896 0.153615 
0.0371026 -0.0575181 0.107483 0.0309692 -0.0610457 0.116121 0.0245367 -0.0645365 0.124674 
0.0110741 -0.0671609 0.131237 -0.00249113 -0.0696124 0.137562 -0.0172112 -0.0701197 0.141217 
-0.0317561 -0.0702331 0.144537 -0.0450469 -0.067523 0.145462 -0.0575957 -0.0642474 0.146064 
-0.0663414 -0.058074 0.14501 -0.0736467 -0.0514909 0.143594 -0.0753341 -0.0433098 0.140772 
-0.0751585 -0.0354741 0.137275 0.0336918 -0.063263 0.104384 0.0279022 -0.0666006 0.112265 
0.0218386 -0.0698872 0.120063 0.00933701 -0.0719747 0.125905 -0.00322987 -0.0738767 0.131513 
-0.016531 -0.0736919 0.134486 -0.0296412 -0.0731399 0.137108 -0.0413841 -0.0699576 0.137209 
-0.052464 -0.0663103 0.136927 -0.0601462 -0.0602799 0.134679 -0.0666367 -0.0539872 0.132002 
-0.0684795 -0.0466716 0.127653 -0.068862 -0.0397764 0.122669 0.0304065 -0.0678912 0.100614 
0.0249832 -0.071024 0.107735 0.0193108 -0.0740954 0.114775 0.00778661 -0.0757229 0.119924 
-0.00377105 -0.0771589 0.124845 -0.0157056 -0.0764415 0.127208 -0.0274423 -0.0753873 0.12921 
-0.0377621 -0.0719194 0.128627 -0.0475023 -0.0680772 0.127615 -0.0542713 -0.0623167 0.124403 
-0.0600838 -0.0564165 0.120708 -0.0621658 -0.0499708 0.11513 -0.0631574 -0.0439957 0.108947 
0.0274059 -0.0699881 0.0953253 0.0223996 -0.0728827 0.101678 0.0171686 -0.0757139 0.107956 
0.00665933 -0.0770555 0.112473 -0.00386445 -0.078215 0.116777 -0.014551 -0.0773271 0.118689 
-0.025053 -0.07614 0.120251 -0.0342329 -0.0728093 0.1193 -0.0429257 -0.0691729 0.117908 
-0.0491223 -0.0639704 0.114252 -0.0545668 -0.0586938 0.11009 -0.0570782 -0.0531283 0.103955 
-0.0587943 -0.0480267 0.097227 0.0245868 -0.0710955 0.0898022 0.0199887 -0.0737325 0.0954286 
0.015189 -0.0763062 0.100986 0.00565235 -0.0773888 0.104924 -0.00388344 -0.0783014 0.108665 
-0.0134095 -0.0773012 0.11019 -0.0227671 -0.0760387 0.111378 -0.0309182 -0.0728958 0.110149 
-0.0386711 -0.0695071 0.108473 -0.0443826 -0.0648587 0.104504 -0.0495302 -0.0601859 0.100011 
-0.0524785 -0.0554178 0.0934777 -0.0549014 -0.0510931 0.0863596 0.0221093 -0.0703399 0.0838382 
0.0179028 -0.0726831 0.0888177 0.0135152 -0.0749663 0.0937351 0.00487182 -0.0758411 0.0971926 
-0.00376235 -0.0765625 0.100471 -0.0122926 -0.0755598 0.101729 -0.020676 -0.0743297 0.102669 
-0.0280077 -0.0714702 0.101329 -0.0350225 -0.0684078 0.0995489 -0.0404135 -0.0643062 0.0955122 
-0.045398 -0.0601997 0.0909461 -0.0487972 -0.0560737 0.0843155 -0.0518935 -0.0523435 0.0770973 
0.0198755 -0.0688209 0.077924 0.0160372 -0.0708535 0.0823096 0.0120365 -0.0728303 0.0866398 
0.00422047 -0.073495 0.0896646 -0.00358011 -0.0740232 0.0925266 -0.0112072 -0.0730152 0.0935566 
-0.0187087 -0.071812 0.0942878 -0.0253097 -0.0692103 0.0928781 -0.0316675 -0.066442 0.0910376 
-0.0367793 -0.06282 0.08699 -0.0416242 -0.0592026 0.0824105 -0.0454277 -0.0556037 0.0757566 
-0.0491256 -0.0523431 0.0685115 0.0180265 -0.0660964 0.0720885 0.0145192 -0.067792 0.075964 
0.0108655 -0.069437 0.0797902 0.00377306 -0.0698884 0.0824576 -0.00330129 -0.0702199 0.0849778 
-0.0101717 -0.0692022 0.0858414 -0.0169367 -0.0680173 0.0864258 -0.0229472 -0.0656333 0.0850103 
-0.028776 -0.0631081 0.0831778 -0.033674 -0.0598592 0.0792087 -0.0384162 -0.0566094 0.0747108 
-0.0425506 -0.0533559 0.0681503 -0.046737 -0.0503676 0.0609938 0.0164739 -0.0628824 0.066438 
0.0132706 -0.0642342 0.0698451 0.00993537 -0.0655403 0.0732086 0.00349889 -0.0657686 0.0755458 
-0.00291795 -0.0658923 0.07775 -0.00911386 -0.06484 0.0784574 -0.0152228 -0.0636451 0.0789044 
-0.0207086 -0.0614286 0.077486 -0.0260651 -0.0590915 0.0756659 -0.0307583 -0.0561365 0.071787 
-0.035387 -0.0531697 0.0673861 -0.0397638 -0.0501569 0.0609493 -0.0443187 -0.0473301 0.0539158 
0.0153166 -0.0590158 0.0610342 0.0123813 -0.0600147 0.0640286 0.00932619 -0.0609724 0.0669841 
0.00345571 -0.0609644 0.0690275 -0.00239524 -0.0608656 0.0709502 -0.00802639 -0.0597453 0.071515 
-0.0135863 -0.0585031 0.0718371 -0.0186354 -0.0563868 0.0704198 -0.023595 -0.0541644 0.0686178 
-0.0280955 -0.0513978 0.0648448 -0.0325961 -0.0486016 0.0605616 -0.0370973 -0.0456898 0.0542888 
-0.041861 -0.0428767 0.0474242 0.0144839 -0.0549371 0.0558562 0.0117914 -0.055591 0.0584631 
0.00898983 -0.0562082 0.0610354 0.00362547 -0.055963 0.0627925 -0.0017201 -0.0556393 0.0644398 
-0.00685438 -0.0544328 0.0648511 -0.0119306 -0.0531225 0.0650362 -0.0165912 -0.0510679 0.0636004 
-0.0211926 -0.048919 0.0617982 -0.0254908 -0.0462867 0.0581186 -0.029833 -0.0436064 0.053945 
-0.034347 -0.0407385 0.0478444 -0.0391702 -0.0378837 0.0411638 0.0140181 -0.0506187 0.0509334 
0.0115399 -0.0509368 0.0531815 0.00896188 -0.0512221 0.0553984 0.00403597 -0.0507387 0.0568777 
-0.000872644 -0.0501875 0.0582563 -0.00558679 -0.0488742 0.0585018 -0.0102534 -0.0474724 0.0585365 
-0.0145798 -0.0454356 0.0570601 -0.0188667 -0.0433137 0.0552369 -0.0229519 -0.0407548 0.0516367 
-0.0271014 -0.0381286 0.0475633 -0.0315021 -0.03524 0.0416443 -0.0362159 -0.0322808 0.0351648 
0.050366 -0.0480894 0.124246 0.0435272 -0.0522308 0.135364 0.0363381 -0.0563697 0.146359 
0.020919 -0.0604499 0.154459 0.00533286 -0.0644192 0.162209 -0.0121332 -0.0671412 0.166016 
-0.0294387 -0.0695293 0.169365 -0.0455931 -0.069524 0.169431 -0.0609209 -0.0689672 0.169165 
-0.0720112 -0.0655842 0.1672 -0.0814717 -0.0617039 0.165013 -0.0845754 -0.0558844 0.161964 
-0.0855468 -0.0501759 0.158396 0.0461437 -0.0594747 0.12205 0.0394315 -0.063668 0.132369 
0.0323876 -0.0678248 0.142567 0.01755 -0.0711203 0.149944 0.00259619 -0.0742463 0.156979 
-0.0136645 -0.0754644 0.160171 -0.0297184 -0.0763204 0.162885 -0.0442907 -0.0745815 0.16218 
-0.0580739 -0.0723624 0.161054 -0.0678129 -0.0676826 0.157771 -0.0761384 -0.0626878 0.154148 
-0.0789508 -0.0564645 0.1492 -0.0800317 -0.0505453 0.143753 0.0419284 -0.066903 0.116657 
0.035576 -0.0709959 0.125926 0.0289178 -0.0750353 0.135083 0.0150754 -0.0778162 0.141605 
0.00115075 -0.0804062 0.147809 -0.0136981 -0.0808487 0.150446 -0.0283366 -0.0809366 0.152621 
-0.0414673 -0.0784838 0.151483 -0.0538958 -0.075618 0.149892 -0.0627255 -0.0706363 0.14598 
-0.0703657 -0.0654535 0.141672 -0.0733668 -0.0594866 0.135813 -0.0749745 -0.0539075 0.12947 
0.0378307 -0.0729173 0.110687 0.0318677 -0.0768601 0.118915 0.0256251 -0.0807367 0.127039 
0.0128121 -0.0830564 0.132732 -5.38791e-05 -0.0851724 0.138135 -0.013516 -0.0849954 0.140265 
-0.0267715 -0.084478 0.141953 -0.038547 -0.0815206 0.140476 -0.0497115 -0.0782132 0.138526 
-0.0577448 -0.0731113 0.134155 -0.064805 -0.067903 0.129341 -0.0680704 -0.0622799 0.1228 
-0.0702603 -0.0571036 0.115787 0.0339995 -0.0757267 0.103412 0.0284931 -0.0794068 0.110616 
0.0227336 -0.0830175 0.117726 0.0110279 -0.0849974 0.12265 -0.000712698 -0.0867795 0.127314 
-0.0128446 -0.086337 0.129046 -0.0247909 -0.085583 0.130371 -0.0354072 -0.082596 0.128768 
-0.0455135 -0.0793113 0.126701 -0.0530061 -0.0745013 0.12225 -0.0597248 -0.0696359 0.11734 
-0.0634255 -0.0645546 0.110637 -0.0663235 -0.0599231 0.103464 0.0303923 -0.0773312 0.0960647 
0.0253356 -0.0807137 0.10231 0.0200512 -0.084026 0.108472 0.00941471 -0.0856872 0.112688 
-0.00124172 -0.0871606 0.116673 -0.0121228 -0.0865197 0.118055 -0.0228411 -0.0855975 0.119063 
-0.0323935 -0.0826597 0.117385 -0.0415329 -0.0794713 0.115254 -0.0485552 -0.0749991 0.110802 
-0.0549896 -0.0705094 0.10588 -0.0591312 -0.0659516 0.099123 -0.0627245 -0.0618307 0.0918947 
0.0272064 -0.0766676 0.0885806 0.0225867 -0.0796869 0.0939907 0.0177622 -0.0826395 0.0993279 
0.00812363 -0.0840223 0.102951 -0.00152643 -0.0852339 0.10637 -0.0113059 -0.0845208 0.107492 
-0.0209492 -0.0835595 0.108273 -0.0296174 -0.0808191 0.106613 -0.0379617 -0.0778653 0.10452 
-0.0446462 -0.0738174 0.100214 -0.0509038 -0.0697652 0.0954371 -0.0554966 -0.0656966 0.088829 
-0.0597612 -0.0620217 0.0817451 0.0243221 -0.0751245 0.0813312 0.0201142 -0.0777645 0.085985 
0.0157224 -0.080342 0.0905751 0.00701136 -0.0814505 0.0936663 -0.00170484 -0.0824052 0.0965781 
-0.0104787 -0.0816302 0.0974722 -0.0191417 -0.0806383 0.0980574 -0.0270115 -0.0780924 0.0964289 
-0.0346383 -0.0753648 0.0943897 -0.0410194 -0.0717062 0.0902455 -0.0471176 -0.068048 0.0856355 
-0.0521123 -0.064391 0.0792085 -0.0569767 -0.0610725 0.0723017 0.021914 -0.0721929 0.0744523 
0.0180779 -0.074428 0.0784743 0.0140762 -0.0766062 0.0824406 0.0061814 -0.077447 0.0850967 
-0.00171541 -0.0781522 0.0875945 -0.00963504 -0.0773316 0.0883118 -0.0174674 -0.0763229 0.0887484 
-0.0246745 -0.0739663 0.0871737 -0.0317061 -0.0714517 0.0852106 -0.0378382 -0.0681274 0.0812569 
-0.0438043 -0.0647942 0.076846 -0.0491231 -0.0614265 0.0706512 -0.0544744 -0.058323 0.0639735 
0.0198525 -0.0687321 0.0679334 0.0163574 -0.0705637 0.0713894 0.0127129 -0.0723439 0.0747967 
0.00555828 -0.0729174 0.0770611 -0.00159642 -0.0733723 0.0791857 -0.00875173 -0.0724928 0.079739 
-0.0158405 -0.0714513 0.0800371 -0.0224528 -0.0692478 0.0785065 -0.0289467 -0.0669057 0.0766092 
-0.0348345 -0.0638539 0.0728328 -0.040653 -0.060779 0.0686096 -0.046201 -0.0576143 0.0626441 
-0.051913 -0.0546319 0.0561956 0.0182531 -0.064566 0.0618947 0.0150578 -0.0659957 0.0648722 
0.011727 -0.0673796 0.067807 0.00521092 -0.0676864 0.0697374 -0.00130469 -0.0678901 0.0715434 
-0.0078155 -0.0669341 0.0719498 -0.0142769 -0.0658381 0.0721228 -0.0203847 -0.0637393 0.0706234 
-0.0264177 -0.0615159 0.0687783 -0.0320676 -0.0586541 0.0651612 -0.0377176 -0.0557485 0.0611108 
-0.0433683 -0.0526719 0.0553707 -0.0492728 -0.0496854 0.0491514 0.0170131 -0.060189 0.0562308 
0.0140881 -0.0612335 0.0587756 0.0110397 -0.0622373 0.0612828 0.00509296 -0.0622843 0.0629034 
-0.00085338 -0.0622423 0.0644127 -0.0067956 -0.0611981 0.0646697 -0.0127025 -0.0600336 0.0647128 
-0.0183567 -0.0580072 0.0632229 -0.0239692 -0.0558679 0.0614074 -0.0293682 -0.0531503 0.057923 
-0.0348149 -0.0503679 0.0540206 -0.0404478 -0.0473323 0.0484881 -0.046385 -0.0442965 0.0424846 
0.0161794 -0.0555737 0.0509904 0.0134912 -0.0562516 0.0531544 0.01069 -0.0568935 0.0552847 
0.00523431 -0.0566888 0.0566227 -0.00022166 -0.0564073 0.0578601 -0.00568113 -0.0552618 0.0579651 
-0.0111159 -0.0540128 0.057873 -0.0163741 -0.0520223 0.056368 -0.0216119 -0.0499282 0.0545566 
-0.0267451 -0.0473029 0.0511748 -0.0319489 -0.0445915 0.0473923 -0.0374279 -0.0415439 0.0420475 
-0.0432172 -0.0384075 0.0362446 0.0626522 -0.0505516 0.14266 0.0548833 -0.0555057 0.15641 
0.0467094 -0.0604514 0.169983 0.0290217 -0.0651966 0.179397 0.0111463 -0.0698135 0.188281 
-0.00884118 -0.072987 0.191195 -0.0285832 -0.0758334 0.193402 -0.0465669 -0.0763362 0.190547 
-0.0635758 -0.076368 0.187204 -0.0755883 -0.0739863 0.181365 -0.0859231 -0.0712297 0.17535 
-0.0897144 -0.0670113 0.168645 -0.0915095 -0.0629094 0.161696 0.0574676 -0.0644711 0.137641 
0.0498718 -0.0697326 0.150166 0.0418926 -0.0749481 0.162526 0.0249049 -0.0790823 0.17102 
0.00777723 -0.0830176 0.179028 -0.0109261 -0.0847169 0.181558 -0.0293594 -0.086037 0.183413 
-0.0458579 -0.0846404 0.180436 -0.0614418 -0.0828065 0.176923 -0.0723383 -0.0787315 0.17066 
-0.0817517 -0.0744224 0.164111 -0.0853809 -0.0692009 0.156449 -0.0873294 -0.0642823 0.14852 
0.0520245 -0.0734368 0.12947 0.0448629 -0.078677 0.140505 0.0373485 -0.0838524 0.151393 
0.0215477 -0.0875042 0.158807 0.00564078 -0.0909303 0.165792 -0.0114612 -0.0918173 0.167938 
-0.0283068 -0.0923185 0.16947 -0.0433149 -0.0900554 0.166609 -0.0575179 -0.0873956 0.163211 
-0.0675944 -0.0827034 0.15706 -0.0764071 -0.0778629 0.150565 -0.0802907 -0.072444 0.142728 
-0.0827863 -0.0674141 0.134603 0.0467148 -0.0806438 0.120876 0.0400196 -0.0857667 0.130461 
0.0330027 -0.0908108 0.139914 0.0184281 -0.094002 0.146289 0.00377677 -0.0969511 0.152288 
-0.0117384 -0.0971757 0.154074 -0.0270165 -0.097018 0.155309 -0.0405962 -0.0941216 0.152598 
-0.0534833 -0.0908694 0.149359 -0.0628214 -0.0857944 0.143412 -0.071111 -0.0806417 0.137076 
-0.0753113 -0.0751861 0.129219 -0.0784062 -0.0701805 0.121053 0.041707 -0.0838644 0.111325 
0.0355517 -0.0886526 0.119546 0.0291063 -0.0933587 0.127653 0.015847 -0.0961388 0.133076 
0.00253027 -0.0986838 0.138178 -0.0114311 -0.0985855 0.139659 -0.0251879 -0.0981318 0.140654 
-0.0374792 -0.0951307 0.138172 -0.049198 -0.0918152 0.135191 -0.0579824 -0.0868886 0.129656 
-0.0659248 -0.0819209 0.123714 -0.0705834 -0.0767925 0.116189 -0.0743956 -0.0721187 0.108335 
0.0370033 -0.0856519 0.101927 0.0313777 -0.0900534 0.108891 0.0254922 -0.0943724 0.115757 
0.0134993 -0.0967544 0.120311 0.00146529 -0.0989133 0.124592 -0.0110321 -0.0985629 0.125797 
-0.0233579 -0.0978872 0.126577 -0.0344544 -0.0948804 0.124317 -0.0450924 -0.0915983 0.121591 
-0.0533805 -0.0869056 0.116474 -0.0610209 -0.082198 0.110942 -0.0661356 -0.0774318 0.103789 
-0.07065 -0.073108 0.0962919 0.0328721 -0.0847418 0.0928172 0.0277571 -0.0886589 0.0987251 
0.0224092 -0.0924981 0.104549 0.0115913 -0.0945066 0.108388 0.00074202 -0.0963129 0.111994 
-0.0104606 -0.0958437 0.112976 -0.0215255 -0.0950859 0.113587 -0.0316029 -0.0922596 0.111539 
-0.0413249 -0.0891929 0.109061 -0.0492248 -0.0848949 0.104375 -0.0566486 -0.0805887 0.0992777 
-0.0622153 -0.0762507 0.0925774 -0.0674031 -0.0723112 0.0855207 0.0291369 -0.0828529 0.08417 
0.0245008 -0.0862739 0.0891366 0.0196567 -0.0896226 0.0940313 0.00992638 -0.0912689 0.0972357 
0.00017224 -0.0927344 0.100242 -0.00984995 -0.0921644 0.101025 -0.0197657 -0.0913414 0.101483 
-0.0289188 -0.0887037 0.0996229 -0.0378092 -0.085857 0.0973658 -0.0453528 -0.0819384 0.0930758 
-0.0525742 -0.0780114 0.0883821 -0.0585389 -0.0740511 0.0821141 -0.0643256 -0.0704326 0.0754811 
0.026027 -0.0794186 0.0762532 0.0218198 -0.0823252 0.0804599 0.0174259 -0.0851662 0.0846049 
0.0086452 -0.086468 0.0873012 -0.000155178 -0.0876112 0.0898278 -0.00917738 -0.0869691 0.0904451 
-0.0181207 -0.0861074 0.0907774 -0.026499 -0.0836716 0.0890663 -0.0346911 -0.0810517 0.0869897 
-0.0419287 -0.0774887 0.0830406 -0.0489704 -0.0739054 0.0786999 -0.0552474 -0.0702432 0.0728328 
-0.0615155 -0.066846 0.0665966 0.0233434 -0.0754453 0.0688909 0.0195273 -0.0778519 0.0724307 
0.0155434 -0.0801999 0.0759179 0.00761936 -0.0811694 0.0781661 -0.000321497 -0.082001 0.0802687 
-0.00845152 -0.081281 0.0807322 -0.0165267 -0.0803719 0.0809441 -0.0242088 -0.0781064 0.0793521 
-0.0317693 -0.0756781 0.0774232 -0.038707 -0.0724153 0.0737679 -0.0455534 -0.0691162 0.0697345 
-0.0520439 -0.0656755 0.0642261 -0.058663 -0.0624153 0.0583473 0.0212282 -0.0707533 0.0622676 
0.0177526 -0.0726794 0.065265 0.0141254 -0.0745537 0.0682168 0.00693396 -0.0752072 0.0700971 
-0.000273015 -0.0757416 0.0718504 -0.00765463 -0.074936 0.0721748 -0.0150006 -0.0739675 0.0722743 
-0.0220913 -0.0718304 0.0707612 -0.0291095 -0.0695465 0.0689361 -0.0357552 -0.0665104 0.0655122 
-0.0423858 -0.0634161 0.0617246 -0.0489576 -0.0600948 0.0565189 -0.0557538 -0.056859 0.0509448 
0.0195298 -0.0658826 0.0561706 0.0163591 -0.0673578 0.0586917 0.0130508 -0.0687873 0.0611731 
0.00650843 -0.0691416 0.0627239 -4.86998e-05 -0.0693937 0.0641633 -0.00677241 -0.0684954 0.0643505 
-0.013476 -0.0674572 0.0643354 -0.0200358 -0.0654167 0.0628715 -0.0265603 -0.0632431 0.0611179 
-0.0329033 -0.060388 0.0578798 -0.0392843 -0.057453 0.0542925 -0.0458134 -0.0542071 0.0493435 
-0.0526225 -0.0509538 0.0440301 0.0183026 -0.0608101 0.0506685 0.0153963 -0.0618677 0.0527879 
0.0123642 -0.0628851 0.0548725 0.00637667 -0.0629593 0.0561373 0.000374384 -0.0629459 0.057303 
-0.00579373 -0.0619467 0.0573549 -0.0119531 -0.0608273 0.057223 -0.0180503 -0.0588473 0.0557747 
-0.0241363 -0.0567456 0.054056 -0.0301644 -0.0540197 0.0509522 -0.0362574 -0.051193 0.0475136 
-0.0426037 -0.0479725 0.0427693 -0.0492401 -0.0446542 0.0376669 0.076948 -0.0552989 0.16223 
0.0679733 -0.0613401 0.179128 0.0585213 -0.0673594 0.195787 0.0378572 -0.0728618 0.206824 
0.0169742 -0.0781942 0.217111 -0.0063718 -0.081613 0.218956 -0.029361 -0.084674 0.219795 
-0.0497944 -0.0851706 0.213424 -0.0690358 -0.0852396 0.206396 -0.0821678 -0.0831164 0.196007 
-0.0934835 -0.0807205 0.185521 -0.0977154 -0.077261 0.174661 -0.0999998 -0.0739531 0.163885 
0.0705035 -0.0717475 0.153998 0.0617955 -0.0783789 0.169124 0.0526381 -0.0849478 0.184034 
0.0329192 -0.090046 0.193874 0.0130285 -0.094892 0.203051 -0.00879395 -0.0969002 0.204769 
-0.0302595 -0.0984757 0.205576 -0.0491676 -0.0969497 0.199846 -0.0669768 -0.0949974 0.193451 
-0.079154 -0.0908606 0.183644 -0.0897061 -0.0865605 0.173631 -0.0939211 -0.0816235 0.162812 
-0.0964454 -0.0770186 0.152003 0.0635153 -0.082141 0.142688 0.0553595 -0.0888224 0.155773 
0.0467928 -0.0954212 0.168671 0.0285707 -0.100077 0.177138 0.0102129 -0.10445 0.185039 
-0.00967121 -0.105645 0.186577 -0.029233 -0.106389 0.187321 -0.0464858 -0.103911 0.182375 
-0.0627827 -0.101026 0.176795 -0.0741806 -0.0960535 0.167973 -0.0841827 -0.0909795 0.158876 
-0.0887419 -0.0855082 0.148711 -0.0918725 -0.0804523 0.138485 0.0566937 -0.0903955 0.131152 
0.0491219 -0.0969761 0.142282 0.0411778 -0.103459 0.153249 0.0244871 -0.107657 0.160407 
0.00769251 -0.111554 0.167091 -0.0102699 -0.112076 0.168448 -0.0279485 -0.112145 0.169125 
-0.0435936 -0.108972 0.164926 -0.058427 -0.105416 0.160133 -0.0691004 -0.0998937 0.152298 
-0.0786055 -0.0943193 0.144137 -0.0835545 -0.0885401 0.1347 -0.0873343 -0.0832342 0.125138 
0.0502497 -0.0938015 0.119108 0.043334 -0.0999395 0.128471 0.0360849 -0.105978 0.137696 
0.021004 -0.10968 0.143689 0.00584163 -0.113093 0.149288 -0.0102372 -0.113263 0.150463 
-0.0260792 -0.11301 0.151061 -0.0402246 -0.109726 0.147527 -0.0537051 -0.106093 0.143454 
-0.0637781 -0.100668 0.136616 -0.0729062 -0.095213 0.129432 -0.078349 -0.0896391 0.120892 
-0.0828748 -0.0845387 0.112181 0.0442185 -0.0955364 0.107489 0.0379412 -0.101162 0.115247 
0.0313673 -0.106689 0.12289 0.0178256 -0.109898 0.127829 0.00422128 -0.112836 0.132446 
-0.0100885 -0.112725 0.133446 -0.0242069 -0.112225 0.133963 -0.0369544 -0.108944 0.131022 
-0.049175 -0.105347 0.127594 -0.0586952 -0.100137 0.121676 -0.0674812 -0.0949104 0.115399 
-0.0734037 -0.0896218 0.107721 -0.0786523 -0.08479 0.0998355 0.0389644 -0.0941259 0.0966745 
0.0332923 -0.0991069 0.103131 0.0273564 -0.103996 0.10949 0.0152209 -0.106718 0.113584 
0.00303486 -0.109198 0.117412 -0.00972146 -0.108938 0.118252 -0.022329 -0.108335 0.118684 
-0.0338703 -0.105269 0.116198 -0.045006 -0.101923 0.113277 -0.0540628 -0.0971472 0.108131 
-0.0625725 -0.0923557 0.102631 -0.0689484 -0.0875032 0.0957518 -0.0748756 -0.0830591 0.0886422 
0.034228 -0.0916498 0.0865825 0.0291197 -0.0959821 0.0918954 0.0237772 -0.10023 0.0971282 