# vtk DataFile Version 2.0
vtk output
ASCII
DATASET RECTILINEAR_GRID
DIMENSIONS 13 13 13
X_COORDINATES 13 float
7.5 7.70833 7.91667 8.125 8.33333 8.54167 8.75 8.95833 9.16667 
9.375 9.58333 9.79167 10 
Y_COORDINATES 13 float
-2.5 -2.29167 -2.08333 -1.875 -1.66667 -1.45833 -1.25 -1.04167 -0.833333 
-0.625 -0.416667 -0.208333 0 
Z_COORDINATES 13 float
5 5.20833 5.41667 5.625 5.83333 6.04167 6.25 6.45833 6.66667 
6.875 7.08333 7.29167 7.5 
POINT_DATA 2197
VECTORS grad float
0.372862 0.0314103 0.182604 0.340198 0.0153145 0.158807 0.288895 0.00102237 0.134626 
0.235729 -0.00642643 0.112815 0.182085 -0.0121205 0.0916101 0.140827 -0.0126789 0.0742032 
0.101987 -0.0122353 0.0575373 0.0738827 -0.00910824 0.0446022 0.0472764 -0.00560677 0.0321878 
0.0281024 -0.00141765 0.0229921 0.00958906 0.00283258 0.0140825 0.00149239 0.00661209 0.00780733 
-0.00616102 0.0103716 0.00164426 0.340103 0.123019 0.21185 0.313712 0.0800352 0.184875 
0.26981 0.04247 0.157858 0.222748 0.0215871 0.133824 0.174876 0.00498178 0.110555 
0.13734 -0.000996993 0.0912618 0.101821 -0.00490226 0.0727441 0.0753887 -0.0036359 0.0580594 
0.0502236 -0.0016479 0.0439096 0.031437 0.00194055 0.0331712 0.0132173 0.00567127 0.022736 
0.00508296 0.00917788 0.0152106 -0.00262225 0.012675 0.00780899 0.270663 0.164939 0.23396 
0.256908 0.109051 0.205918 0.228393 0.0598806 0.177985 0.193883 0.0325201 0.152847 
0.157835 0.0107519 0.128426 0.127556 0.00281923 0.107575 0.0984017 -0.00241381 0.0874211 
0.0750025 -0.00126792 0.0709721 0.0524061 0.000768086 0.0550402 0.0343312 0.00452932 0.0427032 
0.0166583 0.00844391 0.0306859 0.00850679 0.0119408 0.0219094 0.00076049 0.0154199 0.0132709 
0.190605 0.192474 0.254003 0.191328 0.12773 0.225507 0.18051 0.0703331 0.197213 
0.160419 0.0385088 0.171295 0.137949 0.0132417 0.145987 0.115949 0.00435854 0.123673 
0.09404 -0.00132774 0.101945 0.0740685 0.000201429 0.0837271 0.0543672 0.00273745 0.0659995 
0.037098 0.00689535 0.052048 0.020045 0.0111974 0.038432 0.0118824 0.0147607 0.0284044 
0.00409806 0.0182926 0.0185293 0.119125 0.168728 0.26546 0.131735 0.108301 0.240202 
0.136167 0.0544184 0.214616 0.129973 0.0259342 0.189165 0.121054 0.00396271 0.163748 
0.10738 -0.00167015 0.139861 0.0927788 -0.00411494 0.116273 0.0758034 -0.000300522 0.0959197 
0.0584967 0.00438732 0.076018 0.0414124 0.0095502 0.0602816 0.0243479 0.0147553 0.0449154 
0.0158755 0.0184407 0.0336626 0.00776871 0.0220615 0.0225849 0.0495746 0.133442 0.274985 
0.0734895 0.0802982 0.253797 0.0926199 0.032571 0.231608 0.100207 0.00918288 0.206904 
0.104833 -0.00796433 0.181555 0.0994963 -0.00940166 0.156069 0.0922152 -0.00777363 0.130557 
0.0781388 -0.00124602 0.107986 0.0631141 0.00596531 0.0858248 0.046075 0.01227 0.0682652 
0.028857 0.0184942 0.0511146 0.0200076 0.0223143 0.0386427 0.0115143 0.026032 0.0263698 
0.00022554 0.0905245 0.283568 0.0335174 0.0465151 0.268857 0.0648333 0.00736527 0.251991 
0.0842887 -0.00832479 0.227815 0.100703 -0.0179994 0.201764 0.101712 -0.0138105 0.173311 
0.0997147 -0.00691648 0.144389 0.086452 0.00230377 0.118727 0.0716173 0.0118487 0.0935194 
0.0531516 0.0186612 0.0739854 0.0343631 0.0252309 0.0549556 0.0246073 0.0285733 0.0414617 
0.0152359 0.0317783 0.0282034 -0.0457565 0.046335 0.291994 -0.00340916 0.0117687 0.284162 
0.0396734 -0.0184002 0.272938 0.070679 -0.0259585 0.249254 0.0985877 -0.0277192 0.222374 
0.105611 -0.0176656 0.190725 0.108558 -0.00530667 0.158146 0.0957616 0.00660278 0.129247 
0.0807681 0.0184496 0.100862 0.0606304 0.0256642 0.0793282 0.0400354 0.0324672 0.0584035 
0.029285 0.0352298 0.0439206 0.0189536 0.0378205 0.0297118 -0.0782139 0.0414052 0.302355 
-0.0265626 0.0141729 0.302417 0.0282666 -0.00919059 0.297469 0.0697709 -0.0120256 0.272498 
0.107858 -0.00959681 0.242393 0.118249 0.00175257 0.205503 0.123235 0.0148425 0.16729 
0.10835 0.025353 0.134693 0.0906916 0.0355036 0.10288 0.0676355 0.0404417 0.0798558 
0.0440996 0.0449164 0.0576131 0.0320723 0.0456539 0.0428071 0.0205348 0.0462322 0.0283175 
-0.109134 0.0409368 0.312936 -0.0481509 0.0207988 0.321007 0.0184226 0.00399341 0.322406 
0.0703061 0.00549447 0.295947 0.118423 0.0116895 0.262345 0.131881 0.0238154 0.219982 
0.138575 0.0370984 0.175909 0.121311 0.0457454 0.139562 0.100703 0.0537455 0.104293 
0.0745868 0.0561026 0.0798362 0.0479812 0.0579581 0.0563411 0.0346448 0.056506 0.0412876 
0.0218731 0.0549132 0.0265932 -0.125817 0.104019 0.302783 -0.0595189 0.0912708 0.31769 
0.0141438 0.0797696 0.324756 0.0717955 0.0779206 0.297227 0.125342 0.0785467 0.260828 
0.13901 0.0813527 0.215242 0.144897 0.0845841 0.167864 0.124927 0.0842969 0.130652 
0.101349 0.0835187 0.0948581 0.0732428 0.0796833 0.0712134 0.0447338 0.0755761 0.0486487 
0.0307863 0.0703768 0.0347448 0.0174585 0.0651309 0.0212094 -0.14157 0.171245 0.291277 
-0.0702203 0.165907 0.312945 0.0102279 0.159628 0.325633 0.0733472 0.153928 0.297061 
0.132023 0.148376 0.25791 0.145715 0.141204 0.209249 0.15063 0.133715 0.158733 
0.127934 0.124033 0.120844 0.101385 0.114044 0.0847161 0.0713578 0.103781 0.0620295 
0.0410216 0.0934927 0.0405376 0.0265084 0.0844444 0.0278744 0.0126686 0.0754489 0.0155868 
-0.132926 0.265864 0.21746 -0.069439 0.267919 0.24037 0.00273569 0.265964 0.255655 
0.0596396 0.251968 0.233671 0.112628 0.234884 0.202131 0.124289 0.212616 0.161884 
0.127887 0.189337 0.119939 0.106343 0.167358 0.0891342 0.0812907 0.14556 0.0598835 
0.0535026 0.127842 0.0421024 0.0254713 0.110487 0.0253408 0.0121669 0.0974111 0.0157674 
-0.000510871 0.0845169 0.00649972 0.329363 0.0602875 0.340003 0.299655 0.0416191 0.280594 
0.252445 0.024917 0.224871 0.203893 0.0153694 0.182796 0.154996 0.00765644 0.144221 
0.117717 0.0051478 0.116001 0.0827062 0.00365467 0.0898013 0.0575452 0.00493098 0.07079 
0.0337586 0.00659375 0.0527815 0.0167101 0.0091562 0.039877 0.000260445 0.0117986 0.0274262 
-0.00691299 0.0142709 0.0187441 -0.0136917 0.016736 0.0102223 0.293409 0.145396 0.368307 
0.270342 0.101687 0.306335 0.230969 0.0633906 0.2483 0.188758 0.0414285 0.204285 
0.145818 0.0236547 0.163864 0.112337 0.0161108 0.133823 0.0807006 0.010563 0.105807 
0.0572808 0.0100562 0.0849978 0.0350075 0.0102528 0.0651937 0.0184692 0.0122062 0.0506571 
0.00244074 0.0143158 0.0365887 -0.0046926 0.0165108 0.0265709 -0.0114474 0.0187094 0.0167253 
0.225386 0.180285 0.378075 0.214446 0.126033 0.319463 0.189901 0.0781978 0.264178 
0.159661 0.0508431 0.221035 0.127961 0.0287401 0.181006 0.101349 0.0194905 0.150099 
0.0757301 0.0127489 0.120973 0.05525 0.012073 0.0985394 0.0354868 0.0122434 0.0770392 
0.019766 0.0143119 0.0608464 0.00440455 0.016549 0.0451254 -0.0026577 0.0187342 0.0337604 
-0.00936679 0.0209172 0.0225807 0.148079 0.200638 0.382477 0.150855 0.140039 0.32894 
0.143163 0.0861542 0.277869 0.126524 0.0554396 0.236414 0.10759 0.0306664 0.197424 
0.0887379 0.0206749 0.165929 0.0699013 0.0135677 0.135896 0.0527078 0.0131899 0.111888 
0.0357434 0.0137511 0.0887206 0.020929 0.0161442 0.0708647 0.00630569 0.0187001 0.0534809 
-0.00067649 0.0209529 0.0407655 -0.00733353 0.0231929 0.0282487 0.0838813 0.17338 0.376313 
0.0967845 0.118934 0.331734 0.102335 0.0701198 0.288302 0.0978292 0.043205 0.250179 
0.0907445 0.0219054 0.213418 0.0792648 0.0148551 0.181481 0.0669277 0.0105851 0.150485 
0.0525554 0.0121693 0.124626 0.0378991 0.0145704 0.0994842 0.0234631 0.0178679 0.079802 
0.00904675 0.0212451 0.0606051 0.00189595 0.0236712 0.0465534 -0.00494569 0.0260567 0.0327205 
0.0226326 0.13541 0.367771 0.0448565 0.0899283 0.333024 0.0628378 0.0486875 0.298002 
0.0701346 0.0271832 0.263582 0.0746917 0.0107396 0.229318 0.0704978 0.0074592 0.196971 
0.0645965 0.00674721 0.164999 0.0529408 0.0106677 0.137227 0.0404821 0.0152347 0.110041 
0.0263058 0.0195672 0.0884961 0.0119768 0.0238788 0.0674523 0.00460141 0.0265018 0.0520674 
-0.00247807 0.0290528 0.0369233 -0.0164453 0.0931883 0.361506 0.0124739 0.0575226 0.337199 
0.0394755 0.0253625 0.311131 0.0559076 0.0110006 0.27977 0.0696295 0.00120232 0.247053 
0.0706361 0.0026403 0.213012 0.0691618 0.00627072 0.178713 0.0584555 0.0124964 0.148243 
0.0464609 0.0190842 0.118307 0.0313404 0.0239963 0.0947774 0.015942 0.0287594 0.0718176 
0.00790105 0.0311322 0.0553096 0.000173138 0.0334032 0.0390761 -0.0518281 0.0502584 0.35562 
-0.0166512 0.0245501 0.341855 0.0188023 0.00172198 0.324831 0.0439252 -0.00520893 0.296423 
0.066399 -0.0080636 0.265095 0.0722587 -0.0017491 0.229145 0.0748765 0.00635447 0.192293 
0.064825 0.0148801 0.158994 0.0530057 0.0234646 0.12619 0.0367403 0.0288804 0.100657 
0.0200798 0.0340145 0.0757693 0.0112997 0.0360625 0.0581732 0.00285495 0.0379792 0.0408874 
-0.0733495 0.0414687 0.353826 -0.0322755 0.022732 0.349679 0.0107645 0.0064044 0.340732 
0.0429943 0.00368649 0.313204 0.0724521 0.00445828 0.280912 0.0809201 0.0120121 0.241326 
0.0852924 0.0208893 0.200317 0.0739707 0.0285793 0.163937 0.0604591 0.0361037 0.128203 
0.0420705 0.039952 0.101272 0.0232485 0.0434736 0.0751232 0.0134805 0.0440556 0.0571649 
0.00409767 0.0445125 0.0395552 -0.0932958 0.0365586 0.352498 -0.0463656 0.0244542 0.357863 
0.00416252 0.0143053 0.356883 0.0433192 0.0154347 0.330001 0.07956 0.019456 0.296476 
0.0903813 0.0278359 0.253058 0.0962426 0.0370662 0.20771 0.0834319 0.0435643 0.168221 
0.0680157 0.0496812 0.129548 0.0473928 0.0517267 0.101289 0.0263072 0.0534104 0.0739546 
0.0155229 0.0523967 0.0557167 0.00517687 0.0512682 0.0378658 -0.101624 0.0799119 0.332947 
-0.0518248 0.0733815 0.345458 0.00260766 0.0674325 0.350675 0.0450783 0.0668835 0.324462 
0.0844816 0.067719 0.29019 0.0954518 0.0699711 0.245089 0.100874 0.0724996 0.197876 
0.0862465 0.0726945 0.15813 0.0688212 0.0725638 0.119427 0.0466655 0.0700276 0.0921349 
0.0240894 0.0672777 0.0658575 0.0127696 0.0633955 0.0488168 0.00192884 0.0594651 0.032169 
-0.109195 0.126413 0.312207 -0.0567211 0.125387 0.33171 0.00138198 0.123509 0.343008 
0.0469309 0.120921 0.317466 0.0892606 0.118151 0.282478 0.100236 0.113822 0.235834 
0.105093 0.109189 0.186917 0.0886276 0.102747 0.147102 0.0691864 0.0960532 0.108557 
0.0455437 0.0887542 0.0823831 0.0215275 0.0814014 0.0573086 0.00970365 0.0745677 0.0415613 
-0.00160141 0.067756 0.0262108 -0.100699 0.193598 0.238864 -0.0537694 0.197423 0.260288 
-0.0015118 0.198441 0.274639 0.0394223 0.190793 0.255346 0.0774527 0.180925 0.227426 
0.0865125 0.1666 0.188623 0.0899195 0.151406 0.147697 0.0738027 0.136203 0.114703 
0.0549616 0.120999 0.0828155 0.0326169 0.108052 0.0615484 0.00996073 0.0953047 0.0412253 
-0.00110409 0.0852762 0.0286637 -0.0116757 0.0753634 0.0164324 0.234701 0.0906134 0.489542 
0.216981 0.0691798 0.394382 0.184557 0.049919 0.307464 0.148457 0.0381958 0.245961 
0.111413 0.0284052 0.190975 0.0822906 0.0238868 0.152839 0.0547139 0.0203972 0.117991 
0.0344776 0.0197396 0.0935934 0.0152655 0.0194772 0.070654 0.00132035 0.0203182 0.0545217 
-0.0121566 0.0212572 0.0389944 -0.0180588 0.0223384 0.0282288 -0.0236387 0.0234257 0.0176658 
0.196915 0.159115 0.516088 0.185838 0.117994 0.419018 0.161287 0.0816109 0.330391 
0.131537 0.0599418 0.267323 0.100455 0.0420456 0.210809 0.0751072 0.0333959 0.170999 
0.0508782 0.0265505 0.134449 0.0324124 0.0243524 0.108262 0.0147508 0.0228029 0.0835215 
0.00142839 0.0230653 0.0657058 -0.0115083 0.0234888 0.0485056 -0.0172921 0.0242885 0.0363437 
-0.0227716 0.0251042 0.0243962 0.137567 0.180608 0.512257 0.136395 0.133266 0.423209 
0.124213 0.0910752 0.341175 0.104654 0.0660546 0.28108 0.0832017 0.0454366 0.22661 
0.0638037 0.0357264 0.186723 0.0448065 0.0281446 0.149682 0.0289781 0.0258672 0.122085 
0.0135918 0.0243299 0.0958057 0.00112444 0.0246824 0.0763264 -0.0110835 0.0252028 0.0574516 
-0.016721 0.0259925 0.0438782 -0.0220788 0.0267936 0.0305303 0.0719788 0.188494 0.499633 
0.0816548 0.138829 0.421482 0.0831446 0.0941052 0.348444 0.0748851 0.0676419 0.292636 
0.0641259 0.0458608 0.241245 0.0513076 0.035979 0.201742 0.0380876 0.028419 0.16456 
0.0251475 0.0264851 0.135662 0.0122464 0.0253362 0.107921 0.000701222 0.0259722 0.086784 
-0.0107235 0.0267669 0.0662341 -0.0162064 0.0276252 0.0512446 -0.0214366 0.0284862 0.0364916 
0.0233353 0.157112 0.474296 0.0397622 0.115083 0.411002 0.0506084 0.0768391 0.350651 
0.0513547 0.0547813 0.301175 0.0495111 0.0368737 0.254488 0.0423828 0.0298408 0.21584 
0.0342233 0.0249298 0.178761 0.023595 0.0247487 0.148438 0.0126221 0.0252277 0.119057 
0.00152521 0.0267019 0.0961392 -0.00958269 0.0282646 0.0737959 -0.0151195 0.0293531 0.057405 
-0.0204192 0.0304215 0.0412674 -0.0214955 0.116894 0.446097 0.000760438 0.084742 0.398551 
0.0199921 0.0550063 0.351719 0.0292277 0.0386698 0.309037 0.0359002 0.025769 0.267418 
0.0342616 0.0222646 0.22973 0.0310014 0.0205937 0.19281 0.022555 0.0224827 0.161033 
0.013385 0.0248684 0.129973 0.00262982 0.0273055 0.105246 -0.00826627 0.0297472 0.081083 
-0.0139038 0.0311024 0.0632941 -0.0193175 0.0324112 0.0457763 -0.0453428 0.0767716 0.422882 
-0.0196544 0.0537951 0.389614 0.00470195 0.0326257 0.355282 0.0196525 0.0227181 0.31838 
0.0321912 0.0156982 0.280821 0.0340161 0.0162439 0.243078 0.0337505 0.0182657 0.2053 
0.0259902 0.0222242 0.171512 0.0171841 0.0264528 0.13828 0.00579143 0.0295955 0.111717 
-0.00583119 0.0326416 0.0857476 -0.0119339 0.0339958 0.0668019 -0.0178017 0.035278 0.0481551 
-0.0656928 0.0366648 0.400498 -0.0369713 0.0227472 0.381263 -0.00803384 0.0101537 0.359259 
0.0121692 0.00679299 0.327971 0.0301325 0.00579971 0.294302 0.0350832 0.0104823 0.256336 
0.0374947 0.0162724 0.21753 0.0301712 0.0223002 0.181638 0.0214893 0.0283613 0.146152 
0.00929587 0.0321666 0.117749 -0.00320966 0.0357713 0.0899751 -0.00983836 0.03708 0.0699129 
-0.016217 0.0382909 0.0501788 -0.0748347 0.025442 0.383603 -0.0431818 0.0170265 0.375342 
-0.0103072 0.00970262 0.36298 0.0137902 0.0098832 0.335043 0.0356369 0.011988 0.303112 
0.0419799 0.0180035 0.263738 0.0452977 0.0247819 0.222911 0.0369878 0.0306129 0.185026 
0.0270553 0.0363118 0.14755 0.0132819 0.0392931 0.118064 -0.000832832 0.0420329 0.0892869 
-0.0082179 0.0424649 0.0689003 -0.0153166 0.0427987 0.0488706 -0.0827029 0.0175015 0.367332 
-0.0481302 0.0141839 0.369698 -0.0113917 0.0117539 0.366671 0.0164457 0.0151343 0.341828 
0.0420008 0.0200044 0.31139 0.0495391 0.027034 0.270474 0.0535619 0.034485 0.227514 
0.0441038 0.0398616 0.187648 0.0327646 0.0449489 0.148213 0.0173227 0.0469374 0.117729 
0.00151619 0.0486505 0.0880402 -0.00665143 0.0481114 0.0674191 -0.014494 0.0474764 0.0471838 
-0.0830842 0.0455904 0.336283 -0.0472551 0.0458164 0.345777 -0.00875962 0.0461527 0.349262 
0.0205161 0.0487166 0.327039 0.0474278 0.0518517 0.298225 0.054674 0.0551581 0.257685 
0.0580831 0.0584979 0.214858 0.0471767 0.0598344 0.175732 0.0342727 0.0608914 0.137122 
0.0175389 0.0598249 0.107917 0.000464583 0.0585698 0.0795493 -0.0082062 0.0560537 0.0602069 
-0.0165194 0.053484 0.0412485 -0.0829772 0.076029 0.30427 -0.0460002 0.0796973 0.320664 
-0.00588513 0.0826612 0.330476 0.0246788 0.0841467 0.310844 0.0527936 0.0852532 0.283661 
0.0596508 0.0845274 0.243623 0.0623602 0.0834441 0.201077 0.0499859 0.0805066 0.162868 
0.0355068 0.0773103 0.125263 0.0175055 0.0730545 0.0974878 -0.000808812 0.0687044 0.0705859 
-0.00996453 0.0641458 0.0526208 -0.0187305 0.0595783 0.035036 -0.0735127 0.122832 0.23234 
-0.0402564 0.129257 0.25127 -0.00414335 0.133805 0.264544 0.0230174 0.132092 0.250812 
0.0478826 0.128775 0.230155 0.0529518 0.121622 0.197338 0.0541582 0.11372 0.16215 
0.0415042 0.104859 0.130413 0.0269161 0.0958639 0.099158 0.00938977 0.0875909 0.0762022 
-0.00839771 0.079382 0.0539841 -0.0172088 0.0724533 0.0392306 -0.025638 0.065579 0.0247947 
0.108531 0.120854 0.574582 0.108161 0.0964214 0.460698 0.0968902 0.0745814 0.357166 
0.0780657 0.0608161 0.284935 0.0573043 0.0491213 0.220731 0.0389599 0.0427115 0.176788 
0.0210872 0.0373329 0.136797 0.00701575 0.034769 0.109037 -0.00652538 0.0325978 0.0829829 
-0.0167544 0.0316899 0.0647122 -0.0266889 0.0308944 0.0471334 -0.0310993 0.0305459 0.0349241 
-0.0352745 0.0302165 0.0229432 0.0688196 0.166296 0.598881 0.0753841 0.129662 0.483642 
0.0722017 0.0969302 0.378999 0.0597248 0.0766417 0.305633 0.0448646 0.0595438 0.240287 
0.0301889 0.050269 0.194874 0.0155492 0.0425207 0.153351 0.00321918 0.0387764 0.123852 
-0.00878857 0.0355907 0.0960316 -0.0183061 0.03416 0.0760597 -0.0276022 0.0328854 0.0567855 
-0.0318205 0.0322483 0.0431481 -0.0358227 0.0316383 0.0297505 0.0222781 0.169907 0.586572 
0.0357587 0.13278 0.482031 0.0415785 0.0991231 0.386297 0.0368245 0.0781885 0.317271 
0.0293592 0.0605162 0.255095 0.0193343 0.0511142 0.210162 0.00881007 0.043326 0.168594 
-0.00136129 0.0396966 0.137835 -0.0114834 0.0366474 0.108584 -0.0201739 0.0353057 0.0869368 
-0.028737 0.0341157 0.0659658 -0.0327476 0.0334661 0.0508695 -0.0365644 0.0328395 0.0360232 
-0.0262403 0.161408 0.563667 -0.00584914 0.127178 0.473312 0.00923745 0.0954813 0.389386 
0.0126044 0.075602 0.326287 0.0129664 0.0587529 0.268529 0.00787669 0.0500163 0.22464 
0.00172333 0.0428626 0.183458 -0.00616866 0.0397231 0.151577 -0.0143033 0.0371437 0.120992 
-0.0221332 0.0360679 0.0976777 -0.029936 0.0351257 0.0750093 -0.0337343 0.0345436 0.0584454 
-0.0373622 0.0339768 0.0421412 -0.0535943 0.125016 0.527042 -0.0309171 0.0997858 0.454895 
-0.0115783 0.0759272 0.386594 -0.0032262 0.0611973 0.331682 0.00230875 0.0488081 0.280203 
0.000702222 0.0430277 0.237999 -0.00229776 0.0385369 0.197604 -0.00866181 0.0370614 0.164535 
-0.0154953 0.0360067 0.132488 -0.0229195 0.0357461 0.107383 -0.0303961 0.0355561 0.0828953 
-0.0341595 0.0352708 0.0648654 -0.037765 0.0349814 0.0471102 -0.0761862 0.0823493 0.487331 
-0.0522635 0.0674902 0.434294 -0.0298008 0.0527928 0.382479 -0.0171692 0.0441335 0.336263 
-0.00705842 0.0370224 0.291482 -0.00550854 0.0347137 0.251105 -0.00562908 0.033342 0.211588 
-0.0106343 0.0337949 0.177317 -0.0163211 0.0345023 0.143779 -0.0234418 0.0351805 0.116856 
-0.03069 0.0358561 0.0905208 -0.0344585 0.0359192 0.0710253 -0.0380789 0.0359562 0.0518208 
-0.0813769 0.0450154 0.453895 -0.057621 0.037727 0.417275 -0.0343334 0.0303421 0.380016 
-0.0197952 0.0272777 0.341318 -0.00750046 0.0253211 0.302251 -0.00463669 0.0266154 0.2629 
-0.00361314 0.0285441 0.223494 -0.00853461 0.0310119 0.187628 -0.0142857 0.033555 0.152257 
-0.0219133 0.0351468 0.123555 -0.0297077 0.036654 0.0954461 -0.0337885 0.0369959 0.0747482 
-0.0377112 0.0372882 0.0543654 -0.0836675 0.00857029 0.421505 -0.0603135 0.00838571 0.400853 
-0.0365844 0.0080053 0.377828 -0.0205351 0.0104566 0.346452 -0.00645497 0.0136339 0.312934 
-0.00258442 0.0185531 0.274476 -0.000705987 0.0238122 0.235054 -0.00575627 0.0283095 0.197528 
-0.0117734 0.0327006 0.160266 -0.0200429 0.0352018 0.129792 -0.0285127 0.037535 0.0999214 
-0.032957 0.038144 0.0780648 -0.03723 0.0386797 0.056549 -0.0797241 -0.00384038 0.394616 
-0.0559406 -0.000789283 0.385545 -0.0314053 0.00219682 0.372995 -0.0144019 0.00729583 0.346617 
0.00067012 0.0129366 0.316695 0.00447016 0.0193433 0.278418 0.00607076 0.0258994 0.238512 
-0.000107314 0.0309208 0.199789 -0.00737085 0.0357281 0.161232 -0.0169402 0.0381987 0.129907 
-0.0267145 0.0404617 0.0992254 -0.031761 0.0408113 0.0770695 -0.0366064 0.0410795 0.0552763 
-0.0750722 -0.0135199 0.368352 -0.0507648 -0.00767266 0.370364 -0.025382 -0.00173345 0.36786 
-0.00748782 0.0056874 0.346218 0.00848607 0.0134881 0.319669 0.0120932 0.0211394 0.281493 
0.0132872 0.0287614 0.241049 0.00586785 0.0341359 0.201183 -0.00275348 0.0391967 0.161397 
-0.0136974 0.04153 0.129326 -0.0248477 0.0436208 0.0979418 -0.0305237 0.0436512 0.0755843 
-0.0359667 0.0435938 0.0536109 -0.0679544 0.00305642 0.329286 -0.0433997 0.010286 0.33815 
-0.017693 0.0173309 0.342146 0.000235035 0.0242115 0.324375 0.0161685 0.03105 0.301024 
0.0189222 0.0367474 0.264756 0.0191042 0.0422221 0.225968 0.0102489 0.0454636 0.187686 
0.00013234 0.0483935 0.149475 -0.0120925 0.0490774 0.118982 -0.0245047 0.0495618 0.0891759 
-0.0307207 0.0484856 0.0681721 -0.0366731 0.0473429 0.0475429 -0.0606758 0.0213451 0.289385 
-0.0358918 0.0298649 0.304825 -0.00989547 0.0378949 0.315089 0.00801064 0.0440487 0.301134 
0.0238423 0.0497214 0.280969 0.0256995 0.0532562 0.246727 0.02483 0.056374 0.209738 
0.0145259 0.0573204 0.173218 0.00290523 0.0579638 0.136764 -0.0105944 0.0568999 0.108001 
-0.024261 0.0556842 0.0799219 -0.0310113 0.0534501 0.0603734 -0.0374673 0.0511725 0.0411878 
-0.0496129 0.0532356 0.218677 -0.0270088 0.0627778 0.236927 -0.00350362 0.0712171 0.250779 
0.0119898 0.0752343 0.242403 0.0254289 0.0781176 0.228327 0.0256258 0.0776766 0.200919 
0.0232388 0.0765869 0.170909 0.0121195 0.0737671 0.140693 -0.000218406 0.0707057 0.110447 
-0.014002 0.0669948 0.0864714 -0.0279142 0.0632262 0.0630529 -0.0347149 0.0593778 0.046725 
-0.041213 0.0555261 0.0306988 -0.0433122 0.151025 0.607067 -0.0219625 0.123403 0.488332 
-0.00689339 0.0989669 0.380067 -0.00451082 0.0832685 0.304199 -0.00538123 0.0698106 0.236637 
-0.010811 0.0616058 0.190233 -0.0171303 0.054426 0.147957 -0.0240266 0.0499781 0.118483 
-0.0310033 0.0459114 0.090795 -0.0370168 0.0432326 0.0712735 -0.0429447 0.0406771 0.052478 
-0.0456834 0.0388674 0.0393463 -0.0482865 0.0370895 0.0264556 -0.0850236 0.16815 0.62872 
-0.056214 0.13755 0.509108 -0.0326931 0.109886 0.400325 -0.0239779 0.091864 0.323794 
-0.0190593 0.0763147 0.255532 -0.0209943 0.0668064 0.207911 -0.0242666 0.0584769 0.164317 
-0.0294979 0.0533042 0.133189 -0.0350026 0.048572 0.103801 -0.0402353 0.0454466 0.0825883 
-0.0454438 0.0424641 0.0621021 -0.0479205 0.0403564 0.0475338 -0.0502809 0.038286 0.0332172 
-0.115394 0.150222 0.612106 -0.0832806 0.126004 0.504249 -0.0548649 0.103236 0.405445 
-0.0414513 0.0878149 0.334026 -0.0318846 0.0742781 0.269629 -0.0307769 0.0658108 0.222858 
-0.0313197 0.0583327 0.179525 -0.0350149 0.0535546 0.147234 -0.03915 0.0491532 0.116483 
-0.0436369 0.0461349 0.0935794 -0.048155 0.0432396 0.0713738 -0.050374 0.0411151 0.0553134 
-0.0524951 0.0390234 0.0395145 -0.142482 0.122146 0.584414 -0.108267 0.107021 0.49197 
-0.0759865 0.0915 0.406182 -0.0583476 0.0801055 0.341548 -0.0444631 0.0697691 0.282338 
-0.0404435 0.0630214 0.237014 -0.0383487 0.0569741 0.1944 -0.0405452 0.0529146 0.161086 
-0.0433404 0.0491325 0.12907 -0.0470915 0.0463816 0.104477 -0.0509276 0.0437224 0.0805434 
-0.0528901 0.0416624 0.062975 -0.0547728 0.039628 0.0456774 -0.143873 0.0800247 0.542929 
-0.112724 0.0751625 0.469963 -0.0822877 0.0687973 0.401021 -0.0644121 0.0634087 0.345495 
-0.0497572 0.0582704 0.293408 -0.0448882 0.0547489 0.250217 -0.0419287 0.0515429 0.208761 
-0.0436045 0.0491568 0.174347 -0.0459271 0.046885 0.140915 -0.0494067 0.0449617 0.114477 
-0.0529891 0.0430693 0.0886611 -0.0548493 0.0413806 0.0695626 -0.0566362 0.0397004 0.0507499 
-0.139483 0.0347434 0.498341 -0.112562 0.0404075 0.445768 -0.0852544 0.043627 0.394533 
-0.0680394 0.0446896 0.348637 -0.0534123 0.045199 0.30411 -0.0481581 0.0452427 0.263205 
-0.0447327 0.0451955 0.223006 -0.0461079 0.0446974 0.187474 -0.048153 0.0441364 0.152593 
-0.0514654 0.0431668 0.124276 -0.0548905 0.0421607 0.0965422 -0.0566831 0.0409121 0.0759085 
-0.0584063 0.0396531 0.0555769 -0.123226 0.00076023 0.460167 -0.100345 0.0116035 0.424766 
-0.0768414 0.0202797 0.38893 -0.0618442 0.0260049 0.351485 -0.0490281 0.0309734 0.313628 
-0.0449457 0.0343535 0.274375 -0.0425674 0.0374236 0.234849 -0.0447375 0.0390337 0.197918 
-0.0475423 0.04044 0.161348 -0.0513745 0.040659 0.131236 -0.0552979 0.0407725 0.101697 
-0.0572886 0.0401071 0.079805 -0.059197 0.0394086 0.0582384 -0.104991 -0.0313399 0.423061 
-0.0861181 -0.0162087 0.404297 -0.0665318 -0.00276387 0.383475 -0.0540119 0.00732593 0.354285 
-0.043304 0.0165554 0.322948 -0.0406529 0.0232338 0.285242 -0.039574 0.0294143 0.246292 
-0.0427215 0.0331692 0.207914 -0.0464589 0.0365857 0.169616 -0.0509252 0.0380325 0.137722 
-0.0554563 0.0393043 0.106397 -0.0576893 0.0392461 0.0832931 -0.0598245 0.0391312 0.060539 
-0.0873872 -0.0439237 0.39034 -0.0702089 -0.0284727 0.383151 -0.0525249 -0.0141122 0.373042 
-0.0417695 -0.00244895 0.349829 -0.0327906 0.00852272 0.323257 -0.031874 0.016893 0.2868 
-0.0325305 0.0247555 0.248415 -0.0372937 0.0298224 0.209399 -0.04263 0.0344992 0.170296 
-0.0483303 0.0367494 0.137718 -0.0540629 0.0387839 0.105721 -0.0568072 0.0391063 0.082333 
-0.0594243 0.0393558 0.0593112 -0.069855 -0.0542899 0.358116 -0.0541084 -0.0389698 0.36193 
-0.0380978 -0.0241316 0.362042 -0.0290259 -0.011212 0.344549 -0.021733 0.0012156 0.322541 
-0.0225853 0.0110952 0.2873 -0.0250268 0.0204775 0.249478 -0.0314781 0.0267617 0.209917 
-0.0384891 0.0326136 0.170114 -0.0454915 0.035619 0.136978 -0.0524932 0.0383713 0.104434 
-0.0557794 0.0390485 0.0808673 -0.0589074 0.0396373 0.0576824 -0.0556033 -0.046169 0.31387 
-0.0401263 -0.0317345 0.324049 -0.0246433 -0.0176363 0.330382 -0.0165578 -0.00545799 0.31744 
-0.0103691 0.00622793 0.299555 -0.0127342 0.0154054 0.267324 -0.0167684 0.0240933 0.232293 
-0.0249337 0.0298618 0.195039 -0.0336754 0.0352229 0.157475 -0.0421349 0.0378861 0.126203 
-0.0505694 0.0403094 0.0954901 -0.054489 0.040733 0.0733468 -0.0582164 0.0410715 0.0515681 
-0.0415654 -0.0368423 0.26884 -0.0262824 -0.0233427 0.285081 -0.0112521 -0.0100638 0.297375 
-0.00410764 0.00124282 0.288908 0.00101484 0.0120437 0.275118 -0.00284649 0.0203748 0.246012 
-0.00846075 0.0282239 0.213918 -0.0183416 0.0333636 0.179157 -0.0288179 0.0381253 0.144024 
-0.0387446 0.0403747 0.114774 -0.0486225 0.0424008 0.0860466 -0.0531814 0.0425312 0.0654314 
-0.0575141 0.0425808 0.0451612 -0.0283912 -0.0154083 0.199196 -0.0139774 -0.00232696 0.218244 
-0.000198396 0.0102988 0.234024 0.00534374 0.019878 0.230837 0.00877382 0.028676 0.222788 
0.00338014 0.0345729 0.200316 -0.00373522 0.0399036 0.17503 -0.0148909 0.0428804 0.146548 
-0.0266105 0.0455288 0.117619 -0.037528 0.0462886 0.0931679 -0.0483742 0.0468805 0.0691149 
-0.0533627 0.0460967 0.0517159 -0.058102 0.0452543 0.0345999 -0.172664 0.176367 0.566118 
-0.134708 0.146738 0.461194 -0.0990375 0.120815 0.364364 -0.0792523 0.103915 0.294748 
-0.0635402 0.0893273 0.23211 -0.0577817 0.0796681 0.188057 -0.0539654 0.0709704 0.14763 
-0.0543387 0.0647587 0.118857 -0.0552965 0.0588939 0.0917104 -0.0573073 0.0544803 0.0722609 
-0.0594117 0.0501957 0.0534955 -0.0605242 0.046944 0.0402305 -0.0615944 0.0437362 0.0271996 
-0.215686 0.169087 0.58325 -0.169676 0.144264 0.478596 -0.125191 0.121706 0.382262 
-0.0992127 0.106203 0.312628 -0.0779795 0.0925107 0.249841 -0.069033 0.082959 0.204872 
-0.062484 0.0742152 0.16338 -0.0613422 0.0676614 0.133074 -0.0609549 0.0614132 0.104329 
-0.0621416 0.0565846 0.0832372 -0.0634681 0.0518822 0.0628252 -0.0642532 0.0482981 0.0481534 
-0.0650153 0.0447617 0.0337258 -0.231978 0.132737 0.567421 -0.185518 0.120222 0.473874 
-0.139463 0.107615 0.387172 -0.111475 0.0975819 0.322643 -0.0881185 0.0882083 0.2638 
-0.0777147 0.0807046 0.219734 -0.0698382 0.0735658 0.178551 -0.0678095 0.0675853 0.147066 
-0.0665967 0.0617663 0.116935 -0.0671194 0.0570009 0.0941223 -0.0677963 0.052329 0.0719607 
-0.0682674 0.0486919 0.0557869 -0.0687299 0.0450989 0.0398679 -0.240532 0.0879709 0.542051 
-0.195823 0.0899354 0.462747 -0.150296 0.0891884 0.388322 -0.121508 0.0858021 0.330381 
-0.0970126 0.081739 0.276667 -0.0856525 0.0768451 0.23403 -0.0768555 0.0717891 0.193555 
-0.0741216 0.0666468 0.160993 -0.0722338 0.0614924 0.129536 -0.0721388 0.0569285 0.104981 
-0.0722031 0.052417 0.08104 -0.0723642 0.0488078 0.0633367 -0.0725294 0.0452369 0.0458989 
-0.21902 0.0408622 0.50571 -0.181848 0.0543011 0.444143 -0.143302 0.0639428 0.385329 
-0.118537 0.0673566 0.336003 -0.097306 0.0691734 0.289109 -0.0876442 0.0677047 0.248361 
-0.0802398 0.0655949 0.208812 -0.0779813 0.0620607 0.17491 -0.0764408 0.0583278 0.141795 
-0.0761692 0.0545559 0.115234 -0.0760105 0.0507805 0.0892563 -0.075977 0.0475936 0.0699525 
-0.075949 0.0444317 0.0509326 -0.190744 -0.00677377 0.4669 -0.16241 0.0174635 0.423855 
-0.132297 0.037163 0.381405 -0.11264 0.0474112 0.341149 -0.0956643 0.055236 0.301456 
-0.088298 0.057376 0.2627 -0.0828068 0.0584067 0.224127 -0.0812891 0.0566539 0.188824 
-0.080326 0.0545127 0.153978 -0.0799772 0.0516657 0.125352 -0.079683 0.048756 0.0972784 
-0.079481 0.0460802 0.076358 -0.079283 0.0434143 0.0557419 -0.155265 -0.0386904 0.433627 
-0.134186 -0.0113673 0.40641 -0.111793 0.0121599 0.378424 -0.0981377 0.0262991 0.346277 
-0.0867222 0.0380312 0.313062 -0.0829995 0.0433576 0.275645 -0.0807779 0.0474341 0.237408 
-0.0809364 0.0479587 0.200337 -0.081427 0.0479876 0.163428 -0.0815594 0.0466433 0.132775 
-0.08166 0.045177 0.102677 -0.0815104 0.043402 0.0803992 -0.0813502 0.0416139 0.0584539 
-0.118585 -0.0679871 0.401276 -0.104497 -0.0388636 0.389438 -0.0897068 -0.0125471 0.375601 
-0.0822011 0.00499255 0.351401 -0.0765634 0.0202817 0.324544 -0.076709 0.0287243 0.288358 
-0.0779831 0.0358309 0.250351 -0.0799735 0.0387154 0.21145 -0.0820639 0.0410107 0.172423 
-0.0827706 0.0412655 0.139749 -0.0833544 0.0413388 0.107639 -0.083294 0.0405297 0.0840464 
-0.0832061 0.039683 0.0608162 -0.0888376 -0.0823671 0.370221 -0.0780451 -0.0556937 0.369055 
-0.0672865 -0.0308319 0.365325 -0.0639423 -0.0126966 0.347116 -0.0624992 0.00371378 0.325194 
-0.0660353 0.0142637 0.290336 -0.070543 0.02367 0.252955 -0.074702 0.0288717 0.213351 
-0.0788123 0.0334867 0.173437 -0.0807103 0.0355006 0.140003 -0.0824115 0.0372833 0.107145 
-0.0827728 0.0375374 0.0832181 -0.083077 0.0377265 0.0596715 -0.0598779 -0.0950521 0.339314 
-0.0519606 -0.0713116 0.348285 -0.0448284 -0.0483868 0.354202 -0.0454197 -0.0299747 0.341761 
-0.0479913 -0.0127199 0.324613 -0.0548636 -0.000177276 0.291095 -0.062575 0.0114458 0.254384 
-0.0689408 0.0189598 0.214206 -0.0751189 0.0259005 0.173545 -0.0782782 0.0296917 0.139494 
-0.081169 0.033203 0.10603 -0.0819897 0.0345314 0.0818811 -0.0827223 0.035767 0.0581281 
-0.0397466 -0.0954569 0.294484 -0.0322432 -0.0747234 0.308778 -0.0260405 -0.0543318 0.320021 
-0.0282306 -0.0369664 0.312079 -0.0325726 -0.020377 0.299217 -0.0414805 -0.00733206 0.269275 
-0.0512791 0.00502127 0.236 -0.0597317 0.0136827 0.198602 -0.0679966 0.021829 0.160629 