# vtk DataFile Version 2.0
vtk output
ASCII
DATASET RECTILINEAR_GRID
DIMENSIONS 13 13 13
X_COORDINATES 13 float
0 0.208333 0.416667 0.625 0.833333 1.04167 1.25 1.45833 1.66667 
1.875 2.08333 2.29167 2.5 
Y_COORDINATES 13 float
5 5.20833 5.41667 5.625 5.83333 6.04167 6.25 6.45833 6.66667 
6.875 7.08333 7.29167 7.5 
Z_COORDINATES 13 float
0 0.208333 0.416667 0.625 0.833333 1.04167 1.25 1.45833 1.66667 
1.875 2.08333 2.29167 2.5 
POINT_DATA 2197
VECTORS grad float
0.100973 -0.0128532 -0.0676105 0.0964216 -0.00758634 -0.0709558 0.0931364 -0.00190914 -0.0742717 
0.0899041 0.00381244 -0.0776222 0.0874825 0.0102147 -0.0815033 0.0850752 0.0166856 -0.0854637 
0.0827936 0.0237603 -0.0901214 0.0804272 0.0308313 -0.0948003 0.0775521 0.0378803 -0.0996072 
0.0745145 0.0446504 -0.10411 0.0707551 0.0501814 -0.107258 0.0668759 0.0549763 -0.109473 
0.0625833 0.0572282 -0.108458 0.106302 -0.0125426 -0.065915 0.101878 -0.0076125 -0.0696269 
0.0989537 -0.00209692 -0.0734589 0.0960876 0.00348222 -0.0773385 0.094119 0.0100359 -0.0819463 
0.0921453 0.016701 -0.0866567 0.0901264 0.0243475 -0.0922708 0.0879347 0.0320458 -0.0979188 
0.084707 0.0400549 -0.103771 0.0811429 0.0477944 -0.109251 0.0760843 0.0543354 -0.113081 
0.070732 0.0600207 -0.115752 0.0643653 0.0627503 -0.114418 0.11137 -0.0119525 -0.0644499 
0.10714 -0.00756357 -0.0684568 0.104711 -0.00243199 -0.0727423 0.102349 0.00278143 -0.0770906 
0.101033 0.00924979 -0.082401 0.0996943 0.0158736 -0.0878447 0.0981545 0.023865 -0.094462 
0.096339 0.0319711 -0.101137 0.0928688 0.0407655 -0.108157 0.0888427 0.0493119 -0.114736 
0.0823454 0.0567565 -0.119357 0.0753279 0.0632308 -0.122554 0.0665129 0.066353 -0.120832 
0.115618 -0.011434 -0.0634374 0.111624 -0.00785918 -0.0676076 0.109791 -0.0034474 -0.0722161 
0.108041 0.00105823 -0.0769053 0.107554 0.00700276 -0.0828303 0.107034 0.0131341 -0.0889305 
0.106209 0.020909 -0.096573 0.104998 0.0288513 -0.104323 0.10147 0.0377975 -0.112717 
0.0971207 0.0465325 -0.120621 0.0891254 0.0543285 -0.126349 0.0803247 0.0610968 -0.130334 
0.0687418 0.0643152 -0.128298 0.119197 -0.0109739 -0.0627938 0.115475 -0.00843553 -0.0670199 
0.114321 -0.00501716 -0.0718452 0.113268 -0.00149807 -0.076771 0.113756 0.00356532 -0.0832388 
0.114203 0.00883663 -0.0899329 0.114286 0.0159376 -0.0986185 0.113866 0.0232502 -0.107483 
0.110428 0.0318324 -0.117418 0.10587 0.040252 -0.126832 0.0963281 0.0479493 -0.133925 
0.0856483 0.0546084 -0.138911 0.071037 0.0576812 -0.136623 0.121281 -0.0110128 -0.0627862 
0.117808 -0.00976756 -0.0668545 0.117317 -0.00768719 -0.0716617 0.116945 -0.00550982 -0.0765891 
0.118406 -0.00184509 -0.0833582 0.119825 0.00202139 -0.0904072 0.120868 0.00766326 -0.0999194 
0.121304 0.0135221 -0.109699 0.118101 0.0206826 -0.121081 0.113485 0.0277296 -0.131948 
0.10259 0.0342728 -0.140519 0.090222 0.039891 -0.146627 0.072765 0.0423139 -0.144226 
0.122334 -0.0113957 -0.0632171 0.119094 -0.0116208 -0.0669803 0.119254 -0.011116 -0.0716076 
0.119554 -0.0105253 -0.0763744 0.121987 -0.00861618 -0.0832783 0.12438 -0.00653026 -0.0905174 
0.126419 -0.00288901 -0.100707 0.127757 0.00094769 -0.111264 0.124887 0.0059571 -0.124028 
0.120318 0.0109025 -0.136308 0.108203 0.0155637 -0.146437 0.0942784 0.0194984 -0.153749 
0.0741019 0.0209235 -0.15133 0.121324 -0.0127693 -0.064388 0.118226 -0.0145673 -0.0675436 
0.118874 -0.0157985 -0.071648 0.119674 -0.016963 -0.0759053 0.122811 -0.0171057 -0.0825065 
0.125907 -0.0171204 -0.089477 0.128636 -0.0160096 -0.0996966 0.130602 -0.0147642 -0.110344 
0.127987 -0.0127113 -0.123556 0.123499 -0.0106855 -0.136314 0.110687 -0.00878023 -0.147047 
0.0958562 -0.00729951 -0.154784 0.0740525 -0.00728532 -0.15217 0.119117 -0.0147181 -0.0659887 
0.116107 -0.0181488 -0.068361 0.117147 -0.0212088 -0.0717432 0.118349 -0.0242264 -0.0752884 
0.122035 -0.026593 -0.081333 0.125677 -0.0288943 -0.0877684 0.128918 -0.0306215 -0.0976426 
0.131352 -0.0322979 -0.10798 0.128947 -0.0336692 -0.1211 0.124558 -0.0350381 -0.133791 
0.111353 -0.0363962 -0.144574 0.0959947 -0.0378168 -0.152283 0.0731983 -0.0394534 -0.149371 
0.114744 -0.0182224 -0.0681739 0.111712 -0.0230834 -0.0694362 0.112917 -0.0277609 -0.0717483 
0.114283 -0.0324203 -0.0742261 0.118125 -0.0367998 -0.0792461 0.121908 -0.0411744 -0.0846461 
0.125178 -0.0455064 -0.093391 0.127639 -0.0498642 -0.102565 0.12524 -0.0543766 -0.114311 
0.120902 -0.0588578 -0.125621 0.107941 -0.0632003 -0.13499 0.0928794 -0.0672846 -0.141461 
0.0705622 -0.0704768 -0.137917 0.109322 -0.0224807 -0.0706424 0.106213 -0.028674 -0.0706363 
0.107473 -0.0348666 -0.0717096 0.10889 -0.0410652 -0.0729478 0.112694 -0.0473554 -0.0767162 
0.116423 -0.0537 -0.0808383 0.11949 -0.0605236 -0.0880738 0.121762 -0.0674461 -0.0956689 
0.119271 -0.0749625 -0.105421 0.114959 -0.0824192 -0.114713 0.102551 -0.0896108 -0.121958 
0.0881865 -0.0962435 -0.126603 0.0670622 -0.100945 -0.122265 0.102385 -0.0286906 -0.0729306 
0.0991399 -0.0356711 -0.0715107 0.100281 -0.0427925 -0.0712103 0.101566 -0.0499382 -0.0710702 
0.105054 -0.0574577 -0.073389 0.108451 -0.0650682 -0.0760219 0.111044 -0.0734805 -0.0814193 
0.112892 -0.0820238 -0.087092 0.110269 -0.0913536 -0.0944173 0.106022 -0.100593 -0.101282 
0.0945595 -0.10943 -0.106097 0.0813639 -0.117559 -0.108713 0.0621827 -0.123243 -0.103728 
0.0948423 -0.0356811 -0.0751467 0.091438 -0.0432308 -0.0722548 0.0923891 -0.0510464 -0.0705268 
0.0934693 -0.0589024 -0.0689529 0.0965301 -0.0673786 -0.0697429 0.0994838 -0.0759735 -0.070802 
0.101496 -0.0856132 -0.0742297 0.102825 -0.0953998 -0.0778426 0.100054 -0.106067 -0.0825673 
0.0958892 -0.116612 -0.0868402 0.0855275 -0.126612 -0.0891048 0.0736895 -0.135817 -0.0896098 
0.0567514 -0.142273 -0.0840364 0.0972997 -0.0112769 -0.0643251 0.0929105 -0.00640512 -0.0683704 
0.0894806 -0.00127156 -0.0724724 0.0860923 0.00389396 -0.0766143 0.0833395 0.00954955 -0.0813652 
0.0806154 0.0152524 -0.0862043 0.0781431 0.0213709 -0.0918203 0.0756793 0.0274773 -0.0974693 
0.0732659 0.0335109 -0.103316 0.070889 0.0393328 -0.108852 0.0686738 0.044214 -0.113004 
0.0665467 0.0485677 -0.116131 0.0647233 0.0510995 -0.115711 0.102248 -0.0111898 -0.0631548 
0.0979222 -0.00657919 -0.0675423 0.094756 -0.00154051 -0.0721028 0.0916357 0.00354692 -0.0767131 
0.0892182 0.00938183 -0.0820878 0.0868135 0.0152994 -0.0875667 0.0845207 0.0219443 -0.0939627 
0.082171 0.0286205 -0.100391 0.0794797 0.0354841 -0.107013 0.0767021 0.0421444 -0.113249 
0.073541 0.0479014 -0.11777 0.070342 0.053049 -0.121062 0.0670121 0.0560917 -0.120106 
0.107 -0.0109215 -0.0621473 0.102803 -0.00675508 -0.0668084 0.100022 -0.00200968 -0.0717596 
0.0972935 0.00280024 -0.0767717 0.0953816 0.0085995 -0.0827189 0.0934673 0.0145164 -0.0887891 
0.0915319 0.0214684 -0.0959408 0.0894621 0.0284979 -0.103126 0.0865861 0.0359922 -0.110509 
0.0834671 0.043299 -0.117423 0.0792679 0.0497723 -0.122248 0.0748639 0.0555633 -0.125615 
0.0697525 0.0589979 -0.123944 0.111055 -0.0108074 -0.0614871 0.107036 -0.00732712 -0.0662976 
0.10473 -0.00317124 -0.0715099 0.102488 0.00105953 -0.0767955 0.101221 0.00643853 -0.0832054 
0.099939 0.0119594 -0.0897626 0.098528 0.0187285 -0.0976161 0.0968985 0.0256112 -0.105516 
0.0939584 0.033175 -0.113695 0.0905912 0.0405743 -0.121326 0.0853259 0.0472422 -0.126525 
0.0796551 0.0531976 -0.13001 0.0725834 0.056692 -0.127572 0.114543 -0.0108189 -0.0611097 
0.110742 -0.00822195 -0.0659685 0.108985 -0.00489696 -0.0713364 0.107304 -0.00149114 -0.076791 
0.106796 0.00315422 -0.083574 0.106262 0.00795689 -0.0905333 0.105512 0.0141439 -0.0990448 
0.104453 0.0204722 -0.107626 0.101547 0.0276482 -0.116626 0.0980078 0.0346885 -0.125008 
0.0916538 0.041126 -0.130638 0.0846658 0.0468556 -0.134276 0.0754878 0.0501393 -0.131028 
0.116743 -0.0113743 -0.0612191 0.113156 -0.00988249 -0.0659347 0.11194 -0.00768586 -0.0712444 
0.110814 -0.00541082 -0.0766533 0.111061 -0.00193357 -0.0835829 0.111276 0.00169711 -0.090719 
0.111212 0.00667791 -0.0996719 0.110757 0.0118037 -0.108728 0.107964 0.0177996 -0.118407 
0.104341 0.0236917 -0.127419 0.0970333 0.029123 -0.133473 0.088871 0.0339228 -0.137278 
0.0777574 0.0365412 -0.133309 0.118055 -0.012305 -0.0616642 0.114679 -0.0120711 -0.0661044 
0.113999 -0.011208 -0.0712085 0.113422 -0.0102747 -0.0764238 0.114423 -0.00826514 -0.0833438 
0.115388 -0.00611942 -0.0905012 0.116026 -0.00277525 -0.0997464 0.116198 0.000701071 -0.109136 
0.113572 0.0049704 -0.119392 0.109928 0.00917005 -0.128954 0.101759 0.01306 -0.135427 
0.0925206 0.0164447 -0.139408 0.0795891 0.0180842 -0.134779 0.117597 -0.0141778 -0.0626371 
0.11437 -0.0152897 -0.0665501 0.1141 -0.0159024 -0.0711567 0.113943 -0.0164597 -0.0758821 
0.115509 -0.0161677 -0.0824272 0.117034 -0.0157726 -0.0892271 0.118185 -0.0144713 -0.0982689 
0.118816 -0.0130723 -0.107478 0.116333 -0.0110867 -0.117692 0.112708 -0.00913917 -0.1272 
0.104007 -0.00736076 -0.133575 0.0940929 -0.00590846 -0.137343 0.079987 -0.00558273 -0.132102 
0.116111 -0.0165977 -0.0639165 0.112997 -0.0191062 -0.0671559 0.113065 -0.0212774 -0.0710957 
0.113253 -0.0234118 -0.0751591 0.115275 -0.0249824 -0.0811171 0.117248 -0.0264924 -0.0873397 
0.118801 -0.0274698 -0.0958903 0.119796 -0.0283964 -0.104621 0.117442 -0.0290182 -0.114431 
0.11386 -0.0296477 -0.123537 0.104818 -0.0303119 -0.129514 0.094459 -0.0310925 -0.132842 
0.0795523 -0.032275 -0.127017 0.11276 -0.0203175 -0.0655246 0.109673 -0.0240731 -0.0678453 
0.109896 -0.0276546 -0.0708399 0.11024 -0.0312184 -0.073957 0.112433 -0.0345129 -0.0789549 
0.114572 -0.0377895 -0.0842072 0.116228 -0.0409077 -0.0916977 0.117317 -0.0440209 -0.0993477 
0.115008 -0.047104 -0.107955 0.111471 -0.0501687 -0.115871 0.102478 -0.0531517 -0.120715 
0.0921607 -0.056063 -0.123043 0.0772698 -0.0587264 -0.116677 0.108505 -0.0246675 -0.0672921 
0.105404 -0.0295977 -0.0685753 0.105693 -0.0345175 -0.0704895 0.106101 -0.0394393 -0.0725227 
0.108329 -0.0443906 -0.0763796 0.110494 -0.0493665 -0.0804709 0.112108 -0.0545586 -0.0866255 
0.113162 -0.0597909 -0.0929033 0.110856 -0.0652645 -0.0999202 0.107366 -0.0706955 -0.106264 
0.0986106 -0.0759375 -0.109619 0.0885705 -0.0809301 -0.110674 0.0740914 -0.085061 -0.103788 
0.102854 -0.030446 -0.0687527 0.0996845 -0.0361601 -0.0689099 0.0998872 -0.0419876 -0.0696453 
0.100202 -0.0478321 -0.0704925 0.102239 -0.0539387 -0.073056 0.104208 -0.0600993 -0.0758254 
0.105573 -0.0667351 -0.0804063 0.106408 -0.0734375 -0.0850679 0.104063 -0.080539 -0.0902131 
0.10063 -0.0875805 -0.0947294 0.0923584 -0.0943555 -0.0964508 0.082895 -0.100782 -0.0961797 
0.0693143 -0.106007 -0.0890255 0.0966461 -0.036796 -0.0700906 0.0933849 -0.0431377 -0.0690865 
0.0934398 -0.0497004 -0.0686035 0.0935989 -0.0562936 -0.0682241 0.0953556 -0.0633549 -0.0694332 
0.0970385 -0.0704944 -0.0708161 0.0980718 -0.0783219 -0.0737283 0.0986145 -0.0862347 -0.0766761 
0.0962139 -0.094659 -0.079837 0.0928419 -0.103009 -0.0824231 0.0851523 -0.111026 -0.0824543 
0.0763855 -0.118629 -0.080835 0.0638978 -0.124798 -0.0735134 0.0925489 -0.0104365 -0.0606046 
0.0882619 -0.00590944 -0.0650556 0.0846159 -0.00120186 -0.0696087 0.0809975 0.00353079 -0.074207 
0.0778042 0.00864777 -0.0794991 0.0746471 0.0138035 -0.0849025 0.0718095 0.0192997 -0.0912848 
0.069074 0.0247936 -0.0977633 0.0669517 0.0302738 -0.104818 0.065117 0.0356137 -0.111648 
0.0645605 0.0403306 -0.117475 0.0644333 0.044694 -0.122214 0.0657895 0.0478359 -0.123192 
0.0971678 -0.0104499 -0.059683 0.0929175 -0.00611201 -0.0644485 0.0894871 -0.00141885 -0.0693947 
0.0860888 0.00331656 -0.074393 0.0831845 0.00869986 -0.0801884 0.0803059 0.0141588 -0.0861031 
0.0776539 0.020283 -0.0930677 0.0750573 0.026454 -0.100116 0.0727926 0.0329052 -0.107668 
0.0707258 0.0392374 -0.114916 0.069539 0.0450405 -0.120809 0.0686831 0.0504193 -0.12543 
0.0689707 0.0543327 -0.125651 0.101656 -0.0103506 -0.058869 0.0975145 -0.00636745 -0.0638808 
0.0944251 -0.00186771 -0.0691438 0.0913755 0.00269042 -0.074465 0.0889377 0.00814366 -0.0806791 
0.086517 0.0137083 -0.0870183 0.0842477 0.020253 -0.0944579 0.0819773 0.026894 -0.10196 
0.0797004 0.0341134 -0.109835 0.0774979 0.041239 -0.117304 0.075626 0.0479477 -0.12297 
0.0739367 0.0541694 -0.12716 0.0728783 0.0587089 -0.126251 0.105562 -0.0104608 -0.0583166 
0.101587 -0.00705355 -0.0634582 0.0989332 -0.0030203 -0.0689094 0.0963298 0.00108212 -0.074425 
0.094497 0.00624502 -0.0809282 0.0926754 0.0115436 -0.0875632 0.0909519 0.0180362 -0.0953591 
0.0891649 0.0246607 -0.103198 0.0869966 0.0320764 -0.111294 0.0847539 0.0394212 -0.118881 
0.0821802 0.0464506 -0.124205 0.0796065 0.0529626 -0.127836 0.0770324 0.0576876 -0.125623 
0.108994 -0.0107415 -0.0579774 0.105232 -0.00809055 -0.0631536 0.103091 -0.0047463 -0.0686884 
0.101013 -0.00132645 -0.0742937 0.0998983 0.00325254 -0.0809802 0.0987907 0.0079822 -0.0878064 
0.097746 0.0140377 -0.0958618 0.0965705 0.020249 -0.103943 0.0946092 0.0273952 -0.112177 
0.0924041 0.0344913 -0.119797 0.0891151 0.0413647 -0.124685 0.0856154 0.0477169 -0.127655 
0.0813875 0.0522681 -0.123994 0.111306 -0.0115826 -0.0580128 0.107765 -0.00989248 -0.0630539 
0.106138 -0.00751357 -0.068483 0.104587 -0.0050604 -0.0739881 0.10419 -0.0014687 -0.0806567 
0.103798 0.0022708 -0.0874738 0.103443 0.00731095 -0.0955979 0.102893 0.0125072 -0.10374 
0.101176 0.0186403 -0.111991 0.0990517 0.0247392 -0.119547 0.095122 0.0306856 -0.124016 
0.0907809 0.0361553 -0.126364 0.0850182 0.0399777 -0.121384 0.112845 -0.0128101 -0.0583065 
0.109531 -0.012222 -0.0630955 0.108419 -0.010999 -0.0682884 0.107395 -0.00970841 -0.0735621 
0.107717 -0.0073822 -0.0800741 0.108041 -0.00492335 -0.0867441 0.108383 -0.00129738 -0.0948052 
0.108469 0.00246878 -0.102884 0.10702 0.00707612 -0.111067 0.105008 0.0116615 -0.118494 
0.100489 0.0161491 -0.122554 0.0953648 0.0202379 -0.124309 0.0881494 0.0229487 -0.118097 
0.112819 -0.0149201 -0.0589928 0.109687 -0.0155236 -0.0633185 0.108984 -0.0156 -0.0680354 
0.108378 -0.0156215 -0.0728351 0.109255 -0.0148018 -0.078905 0.11013 -0.0138785 -0.085136 
0.110993 -0.0120422 -0.092785 0.111554 -0.0100997 -0.100448 0.110307 -0.00751994 -0.108192 
0.108384 -0.00495452 -0.115148 0.103459 -0.00245262 -0.118595 0.0977883 -0.000240127 -0.119651 
0.0895456 0.000972603 -0.112447 0.111884 -0.0175424 -0.059907 0.108907 -0.0193898 -0.0636469 
0.108553 -0.0208488 -0.0677484 0.108302 -0.0222691 -0.0719332 0.109638 -0.0230961 -0.0773954 
0.110969 -0.0238562 -0.083018 0.11225 -0.0240275 -0.0900519 0.113193 -0.0241372 -0.0970939 
0.112109 -0.0238765 -0.104184 0.110263 -0.0236251 -0.110471 0.105036 -0.0234149 -0.113184 
0.0989573 -0.0233664 -0.113481 0.0899342 -0.0238762 -0.105426 0.109269 -0.0212856 -0.061029 
0.106375 -0.024269 -0.0639876 0.106208 -0.0270104 -0.0672557 0.106145 -0.0297301 -0.070604 
0.107695 -0.0321179 -0.0751823 0.109232 -0.0344764 -0.0799097 0.110667 -0.036577 -0.0859477 
0.111747 -0.0386599 -0.0919757 0.110706 -0.0406371 -0.0979437 0.108878 -0.0426211 -0.10312 
0.103558 -0.0446351 -0.104778 0.0973445 -0.0466981 -0.10413 0.0880458 -0.0489307 -0.0955147 
0.105839 -0.0255724 -0.0622518 0.102993 -0.0296394 -0.0643343 0.102935 -0.0336146 -0.0666632 
0.102981 -0.0375855 -0.0690674 0.104623 -0.0414925 -0.0726282 0.106247 -0.0454082 -0.0763213 
0.107706 -0.0493999 -0.0811788 0.108806 -0.0534179 -0.086002 0.107749 -0.0575936 -0.0906204 
0.105911 -0.0617747 -0.0944725 0.100598 -0.0659801 -0.0949187 0.0943829 -0.0701294 -0.0932365 
0.0850534 -0.0740849 -0.0842016 0.101078 -0.0309982 -0.0631725 0.0982243 -0.0358435 -0.0643111 
0.0981328 -0.0407151 -0.0656286 0.0981405 -0.0455966 -0.0670149 0.0996685 -0.0506292 -0.0694562 
0.101171 -0.0556983 -0.0720093 0.102451 -0.0610899 -0.0755459 0.103382 -0.0665371 -0.0790261 
0.102223 -0.0723185 -0.0821669 0.100324 -0.0781055 -0.084596 0.0951377 -0.0839173 -0.0838622 
0.0890807 -0.0896144 -0.0812574 0.0800162 -0.094915 -0.0721888 0.0957845 -0.0368796 -0.0639725 
0.0929015 -0.042381 -0.0641399 0.0927196 -0.0480143 -0.0644172 0.0926302 -0.05367 -0.064756 
0.0939605 -0.0596706 -0.066037 0.095259 -0.0657319 -0.0674077 0.0962781 -0.0723267 -0.0695676 
0.0969663 -0.0790008 -0.0716492 0.0956692 -0.0861508 -0.0732612 0.0936897 -0.093307 -0.0742279 
0.0886778 -0.100491 -0.0723268 0.0828422 -0.107521 -0.0688439 0.0741612 -0.114015 -0.0598962 
0.0877681 -0.00961504 -0.0568689 0.0835817 -0.00542918 -0.0617065 0.0797155 -0.00114046 -0.0666881 
0.0758628 0.00316674 -0.0717204 0.0722164 0.00775714 -0.077529 0.0686122 0.0123782 -0.0834722 
0.0653792 0.0172697 -0.0905996 0.06234 0.0221691 -0.097889 0.0604638 0.0271166 -0.106151 
0.0591312 0.031995 -0.114282 0.0602145 0.0365661 -0.121828 0.0620883 0.0409562 -0.12823 
0.066693 0.0447211 -0.130681 0.0920611 -0.00972314 -0.0561857 0.0878867 -0.00565481 -0.06131 
0.0841908 -0.00129928 -0.0666202 0.0805129 0.00309245 -0.0719844 0.0771129 0.00803943 -0.0781773 
0.0737499 0.0130561 -0.0845049 0.070713 0.0186856 -0.0920197 0.0678412 0.0243791 -0.0996731 
0.0659607 0.0304558 -0.108159 0.0645665 0.036499 -0.11643 0.065334 0.0423928 -0.123745 
0.0668203 0.0480456 -0.129749 0.0707899 0.0528662 -0.131224 0.0962893 -0.00978616 -0.0555561 
0.0922059 -0.00598337 -0.0608997 0.0888109 -0.00172098 -0.0664534 0.0854421 0.00259424 -0.0720627 
0.0824754 0.00771962 -0.0785225 0.079544 0.0129517 -0.0851102 0.0769232 0.0191232 -0.0928232 
0.0744322 0.0254129 -0.100631 0.0727203 0.0324121 -0.109006 0.071403 0.0394141 -0.117047 
0.0718399 0.0464284 -0.123602 0.0728629 0.0531487 -0.128667 0.0759104 0.0588529 -0.12859 
0.10005 -0.0101128 -0.0551045 0.0961231 -0.00677677 -0.0605582 0.0931286 -0.00285843 -0.0662284 
0.0901709 0.00112405 -0.0719542 0.087777 0.00609 -0.0785322 0.0854191 0.0111874 -0.0852277 
0.0833768 0.0174419 -0.0929571 0.0814236 0.0238503 -0.100729 0.0800045 0.0311824 -0.10876 
0.0788648 0.0385409 -0.116325 0.0789663 0.0460163 -0.121823 0.0794853 0.0531667 -0.125654 
0.0814462 0.059194 -0.123726 0.10343 -0.0106544 -0.054798 0.0997129 -0.00794893 -0.0602728 
0.0971999 -0.00457907 -0.0659559 0.0947363 -0.00113811 -0.0716935 0.0930291 0.00339311 -0.0782686 
0.0913603 0.0080705 -0.0849479 0.0900288 0.0140341 -0.0925454 0.0887411 0.0201722 -0.100128 
0.0877164 0.0273568 -0.107622 0.0868361 0.0345809 -0.114511 0.0865983 0.04198 -0.118712 
0.08658 0.0490413 -0.121067 0.0873204 0.0549353 -0.117044 0.105853 -0.0117722 -0.0547567 
0.102368 -0.00988565 -0.0601046 0.100346 -0.00732076 -0.0656357 0.0983863 -0.00468504 -0.0712197 
0.0973683 -0.000963489 -0.0776159 0.0963904 0.00290229 -0.0841043 0.0957653 0.00803721 -0.0914053 
0.0951385 0.0133432 -0.0986433 0.0945015 0.019676 -0.105504 0.0938779 0.0260476 -0.111647 
0.0933142 0.0325914 -0.114595 0.092785 0.0388101 -0.115548 0.0923747 0.0439053 -0.109603 
0.107617 -0.0132876 -0.0548984 0.104377 -0.0123497 -0.0600172 0.102854 -0.0107666 -0.0652827 
0.101405 -0.00911804 -0.0705989 0.101078 -0.00646473 -0.0766949 0.100792 -0.00368061 -0.0828719 
0.100871 0.00025461 -0.0897627 0.100901 0.00434126 -0.0965492 0.100647 0.00933651 -0.102711 
0.100279 0.0143604 -0.108058 0.0993984 0.0195116 -0.109785 0.0983763 0.0243679 -0.109385 
0.0968636 0.0282055 -0.101637 0.108018 -0.0156268 -0.0553017 0.104993 -0.0157295 -0.0600203 
0.103882 -0.0152736 -0.0648314 0.102853 -0.0147628 -0.0696901 0.103076 -0.0134118 -0.0752794 
0.10334 -0.0119549 -0.0809386 0.103955 -0.00956749 -0.0872137 0.104486 -0.00706314 -0.0933546 
0.1045 -0.00385743 -0.0986904 0.104298 -0.000640114 -0.103158 0.103138 0.00262878 -0.103764 
0.101699 0.00564387 -0.102188 0.0992981 0.00778218 -0.0930707 0.107627 -0.0184442 -0.0558569 
0.1048 -0.0196413 -0.060076 0.10405 -0.0203967 -0.0643231 0.103388 -0.0211113 -0.0686141 
0.10408 -0.0211983 -0.0735767 0.10481 -0.0212115 -0.0785982 0.105867 -0.0205739 -0.0841385 
0.106805 -0.0198625 -0.0895211 0.10702 -0.0187088 -0.0939579 0.106935 -0.0175646 -0.097496 
0.105515 -0.0164623 -0.0970395 0.103704 -0.0155665 -0.0943885 0.10054 -0.0153839 -0.0841563 
0.105736 -0.022208 -0.0565044 0.103046 -0.0244324 -0.0600768 0.102517 -0.026346 -0.063601 
0.102078 -0.0282338 -0.0671638 0.103026 -0.0297249 -0.0713189 0.104006 -0.0311752 -0.0755203 
0.105268 -0.0322669 -0.0801285 0.106386 -0.0333281 -0.0845629 0.106645 -0.0342071 -0.0879548 
0.106553 -0.0351173 -0.0904592 0.1049 -0.0361663 -0.0890197 0.102781 -0.0373836 -0.0854756 
0.0990522 -0.0391822 -0.0746611 0.103118 -0.0264306 -0.0571965 0.100536 -0.0296499 -0.060051 
0.100159 -0.0326958 -0.0627752 0.0998728 -0.0357316 -0.0655321 0.100973 -0.0386102 -0.0687921 
0.102099 -0.0414819 -0.0720847 0.103451 -0.0442927 -0.0756653 0.104641 -0.0471166 -0.0790595 
0.104866 -0.0500189 -0.0813354 0.104706 -0.0529746 -0.0827555 0.102833 -0.0561674 -0.0803718 
0.100438 -0.0594949 -0.0760228 0.0962419 -0.063287 -0.0648843 0.0992306 -0.031511 -0.0575942 
0.0967023 -0.0355027 -0.0596827 0.0963444 -0.0394348 -0.0615605 0.0960733 -0.0433696 -0.063465 
0.097133 -0.0473466 -0.0657775 0.0982109 -0.0513436 -0.06811 0.0994491 -0.0555157 -0.0706184 
0.100518 -0.0597339 -0.0729373 0.100574 -0.0642282 -0.0741195 0.100234 -0.0687939 -0.0745105 
0.098134 -0.0736767 -0.0713857 0.0954822 -0.0786752 -0.0665058 0.0909245 -0.0840732 -0.0555629 
0.0948356 -0.0369346 -0.0578742 0.0923387 -0.0416098 -0.0591773 0.0919465 -0.0463294 -0.0601904 
0.091636 -0.0510638 -0.0612237 0.0925777 -0.0560235 -0.0625678 0.0935297 -0.0610272 -0.0639196 
0.0945736 -0.0664175 -0.065338 0.0954444 -0.0718826 -0.0665676 0.095277 -0.0777964 -0.0666648 
0.0947124 -0.0837979 -0.066049 0.0923827 -0.0901891 -0.0622642 0.0894811 -0.096683 -0.0569631 
0.0846043 -0.103532 -0.0464237 0.0825253 -0.00908332 -0.0528997 0.0784147 -0.00518535 -0.0578299 
0.074269 -0.00120624 -0.0628972 0.0701145 0.00278935 -0.0680183 0.0658238 0.00703743 -0.0739641 
0.0615539 0.0113168 -0.0800731 0.0574669 0.0158711 -0.0876181 0.0536324 0.020451 -0.0954351 
0.0513132 0.0251847 -0.104884 0.0498672 0.0299138 -0.114422 0.0523027 0.0346227 -0.12436 
0.0561915 0.0393034 -0.133206 0.0651009 0.0438862 -0.138277 0.0865502 -0.00919988 -0.0522977 
0.0824554 -0.00535054 -0.0574864 0.0784756 -0.00121176 -0.0628262 0.0744926 0.00296414 -0.0682207 
0.0704617 0.00770929 -0.0744532 0.0664524 0.0125348 -0.0808439 0.0626338 0.0180675 -0.0886269 
0.0590542 0.0237076 -0.0966514 0.0569084 0.029992 -0.106125 0.0556007 0.0363468 -0.115602 
0.0580177 0.0430149 -0.12509 0.0618316 0.0495977 -0.133326 0.0704714 0.0558859 -0.137238 
0.0905788 -0.00931979 -0.0517141 0.0865904 -0.00565363 -0.0570961 0.0829277 -0.00150147 -0.0626191 
0.0792724 0.00270726 -0.0681947 0.0757321 0.00778326 -0.0745744 0.0722222 0.0129863 -0.0810955 
0.0689797 0.0193067 -0.0888609 0.0659618 0.0258127 -0.096803 0.0642916 0.0334324 -0.105806 
0.0633807 0.0411949 -0.11466 0.0658439 0.0495918 -0.122852 0.0695421 0.0578511 -0.129612 
0.0775065 0.0656349 -0.131421 0.0942432 -0.00974415 -0.0512546 0.0904374 -0.00645085 -0.0567291 
0.0872071 -0.00252906 -0.0623135 0.0839981 0.00146257 -0.067946 0.0811154 0.00652514 -0.0743163 
0.0782758 0.0117451 -0.0808048 0.0758168 0.01835 -0.0883326 0.0735639 0.0251881 -0.0959573 
0.0725481 0.0334254 -0.104163 0.0721826 0.041843 -0.112047 0.0747075 0.0510615 -0.118502 
0.0782519 0.0601034 -0.123345 0.0853182 0.0685354 -0.12262 0.097611 -0.0104166 -0.0508964 
0.0940498 -0.0076507 -0.0563811 0.0913459 -0.0041579 -0.0619275 0.0886796 -0.00058699 -0.067516 
0.0865904 0.00418161 -0.0737493 0.0845606 0.00912477 -0.0800722 0.0830541 0.0156041 -0.0871833 
0.0817319 0.0223393 -0.0942988 0.081516 0.0306095 -0.101442 0.0818171 0.039069 -0.108073 
0.0844163 0.0483697 -0.112431 0.0877759 0.0574659 -0.114999 0.0937625 0.0658557 -0.111387 
0.100152 -0.0116765 -0.0507383 0.0968629 -0.00962091 -0.0561037 0.0947009 -0.00681331 -0.0614699 
0.092592 -0.00392733 -0.0668717 0.0912967 0.000160365 -0.072819 0.0900739 0.00442001 -0.0788294 
0.0894905 0.0101928 -0.0853946 0.089064 0.0162108 -0.0918854 0.0895791 0.0237004 -0.0979297 
0.0904794 0.0313575 -0.103309 0.0930917 0.0397584 -0.105731 0.0962324 0.0479395 -0.106221 
0.101198 0.0553607 -0.100034 0.102123 -0.0133415 -0.0507182 0.0991249 -0.0121224 -0.055875 
0.0975155 -0.0101767 -0.0609629 0.095974 -0.00815788 -0.0660795 0.0954727 -0.00501792 -0.0716381 
0.0950551 -0.0017223 -0.0772346 0.0953746 0.00294312 -0.083165 0.0958196 0.00782034 -0.0889512 
0.0970181 0.0139685 -0.0938725 0.098471 0.0202408 -0.098 0.101055 0.0270648 -0.0985993 
0.103953 0.033662 -0.0971453 0.107938 0.0394758 -0.0885984 0.102871 -0.0157883 -0.0508951 
0.100135 -0.0155059 -0.0557004 0.0989912 -0.0145795 -0.0603606 0.0979256 -0.0135909 -0.0650431 
0.0980628 -0.0116495 -0.0700674 0.0982884 -0.00958113 -0.075109 0.099293 -0.0063949 -0.0803033 
0.100391 -0.0030467 -0.0853047 0.10205 0.00127339 -0.0891489 0.103854 0.00566381 -0.0921235 
0.106305 0.0103668 -0.0912333 0.108907 0.0148347 -0.0882374 0.112024 0.0184902 -0.0779674 
0.102907 -0.018689 -0.0511862 0.100419 -0.0194016 -0.0555571 0.0996895 -0.0195858 -0.059703 
0.0990467 -0.0197222 -0.0638648 0.099732 -0.019125 -0.0682703 0.100507 -0.0184367 -0.0726751 
0.10207 -0.0169456 -0.0770746 0.103694 -0.0153519 -0.0812447 0.105683 -0.0131423 -0.0840383 
0.107722 -0.0109224 -0.0859174 0.109982 -0.00865628 -0.0837316 0.112254 -0.00663458 -0.0794272 
0.114569 -0.00545721 -0.0678034 0.101558 -0.0224276 -0.0515352 0.0992551 -0.0240969 -0.0553527 
0.0987964 -0.0253717 -0.0588659 0.0984272 -0.0266142 -0.062389 0.0994326 -0.0273625 -0.0660625 
0.100523 -0.0280564 -0.069721 0.102361 -0.028272 -0.0732471 0.10423 -0.0284423 -0.0765244 
0.106287 -0.0283412 -0.0783083 0.108321 -0.0282857 -0.0791815 0.110252 -0.0284325 -0.0760069 
0.112086 -0.0288416 -0.0707928 0.113591 -0.030157 -0.0585328 0.099538 -0.0265723 -0.0519123 
0.0973895 -0.0291799 -0.0551187 0.0971316 -0.0315355 -0.0579419 0.0969639 -0.0338751 -0.0607689 
0.0981788 -0.0359693 -0.0636556 0.0994713 -0.0380466 -0.0665145 0.101446 -0.0399745 -0.0691293 
0.103423 -0.0419135 -0.071484 0.105422 -0.0439198 -0.0722779 0.107336 -0.0460256 -0.0721886 
0.10887 -0.0485737 -0.0681741 0.110214 -0.0514063 -0.0622438 0.110904 -0.0552216 -0.0496955 
0.0962886 -0.0314208 -0.0520456 0.0942317 -0.0347914 -0.0546005 0.094034 -0.0380332 -0.0567039 
0.0939228 -0.0412728 -0.0588061 0.0951381 -0.0444781 -0.0608892 0.0964201 -0.0476966 -0.0629358 
0.0982886 -0.0510305 -0.0646607 0.100137 -0.0544188 -0.0661286 0.101863 -0.0581334 -0.0660545 
0.103456 -0.061988 -0.0651614 0.10446 -0.0664642 -0.0606281 0.105194 -0.0712432 -0.0543732 
0.104997 -0.0770682 -0.042171 0.0925476 -0.0365507 -0.0520815 0.0905571 -0.0406142 -0.0539685 
0.0903633 -0.0446645 -0.0553403 0.0902507 -0.0487253 -0.0567061 0.0913826 -0.0529477 -0.0579791 
0.0925691 -0.0572104 -0.0592082 0.0942348 -0.061828 -0.0600518 0.095858 -0.0665377 -0.0606473 
0.0972254 -0.071801 -0.0597539 0.0984187 -0.0772392 -0.0581203 0.098838 -0.0834543 -0.0531969 
0.0989136 -0.089989 -0.046774 0.0978023 -0.0976275 -0.0351716 0.0772967 -0.00855809 -0.0489272 
0.0732649 -0.00494236 -0.0539193 0.0688417 -0.00126338 -0.059032 0.0643862 0.00243037 -0.0642005 
0.0594382 0.00635061 -0.0702249 0.0544851 0.010303 -0.0764378 0.0494868 0.0145387 -0.0843105 
0.0447899 0.0188173 -0.0925597 0.041901 0.0233539 -0.103068 0.0402172 0.0279484 -0.113887 
0.0438899 0.0328005 -0.126093 0.0497313 0.0377746 -0.137277 0.0630647 0.0431704 -0.144935 
0.0810591 -0.00867843 -0.0483979 0.0770488 -0.00504331 -0.0536209 0.0727896 -0.00111208 -0.058952 
0.0685052 0.00285763 -0.0643373 0.0638338 0.00741736 -0.0705551 0.0591641 0.0120692 -0.0769515 
0.0545102 0.0175317 -0.0849201 0.0501591 0.0231471 -0.0932283 0.0476243 0.0296797 -0.103574 
0.0462809 0.03639 -0.114141 0.0502326 0.0438905 -0.12569 0.056311 0.0514619 -0.136067 
0.0697359 0.0592787 -0.142394 0.0848934 -0.00884937 -0.0478541 0.0810067 -0.00531634 -0.0532454 
0.0770844 -0.00126596 -0.0587025 0.0731501 0.00284527 -0.0642083 0.0690326 0.00788963 -0.0704603 
0.0649366 0.0130829 -0.076865 0.0610295 0.0195862 -0.0846134 0.0574329 0.0263468 -0.0926171 
0.0556997 0.0346501 -0.102152 0.0550914 0.0432445 -0.111725 0.0594831 0.0531322 -0.121464 
0.065802 0.0630422 -0.129843 0.0787784 0.0730292 -0.133526 0.0884652 -0.00936488 -0.047384 
0.0847888 -0.00611269 -0.0528513 0.0813349 -0.00218077 -0.0583185 0.0778862 0.00182733 -0.063826 
0.0745185 0.00700359 -0.0699499 0.0711981 0.0123651 -0.0761912 0.0682938 0.0193571 -0.0834658 
0.0657054 0.0266668 -0.090889 0.0650122 0.0358827 -0.0992034 0.065341 0.0454431 -0.107341 
0.0702117 0.0565344 -0.114693 0.0767376 0.0676019 -0.120502 0.0889812 0.0785875 -0.120981 
0.0918232 -0.0101612 -0.046974 0.0884278 -0.00733546 -0.0524421 0.0855494 -0.00371561 -0.0578249 
0.0826968 -9.98196e-06 -0.0632372 0.0802384 0.00501079 -0.0691007 0.0778581 0.0102366 -0.0750388 
0.0761653 0.0172671 -0.0816331 0.0747916 0.0246403 -0.088251 0.0753328 0.0340696 -0.0950109 
0.076763 0.0438481 -0.101355 0.0821447 0.0551783 -0.105848 0.0888503 0.0664411 -0.10862 
0.100129 0.0774707 -0.105441 0.0944808 -0.0115562 -0.0467029 0.0913996 -0.00933521 -0.0520605 
0.0891174 -0.00628443 -0.0572389 0.0868798 -0.00314712 -0.0624359 0.0853279 0.00131696 -0.0679166 
0.0838795 0.00598266 -0.0734319 0.0833414 0.0124225 -0.0792519 0.0831141 0.0191866 -0.0849877 
0.0847522 0.0278963 -0.090218 0.0871455 0.0369105 -0.0948396 0.092896 0.0472778 -0.0967557 
0.0996839 0.0575331 -0.0968097 0.110056 0.067402 -0.0904309 0.0966555 -0.0133642 -0.0465276 
0.0939115 -0.0118708 -0.0516979 0.0922394 -0.00956637 -0.0565893 0.0906301 -0.00718071 -0.0614881 
0.0899828 -0.00354998 -0.0665015 0.0894605 0.000262834 -0.0715115 0.0900379 0.00567802 -0.0764926 
0.09091 0.0113692 -0.0812933 0.0935501 0.0187161 -0.0850112 0.0968112 0.0262886 -0.0879602 
0.102832 0.0348638 -0.0874921 0.109635 0.0432824 -0.0850494 0.11914 0.0511596 -0.0757857 
0.0977416 -0.015914 -0.0464888 0.0953085 -0.0152566 -0.0513562 0.0941577 -0.0138683 -0.055849 
0.0930824 -0.0124101 -0.0603397 0.0931666 -0.00988143 -0.0647984 0.093387 -0.0072033 -0.0692245 
0.0948057 -0.00321034 -0.073364 0.0964936 0.000992322 -0.0772569 0.0997972 0.00645322 -0.0796704 
0.103605 0.0120473 -0.0812188 0.109651 0.0182332 -0.0789222 0.116282 0.0242042 -0.0746002 