# vtk DataFile Version 2.0
vtk output
ASCII
DATASET RECTILINEAR_GRID
DIMENSIONS 13 13 13
X_COORDINATES 13 float
7.5 7.70833 7.91667 8.125 8.33333 8.54167 8.75 8.95833 9.16667 
9.375 9.58333 9.79167 10 
Y_COORDINATES 13 float
7.5 7.70833 7.91667 8.125 8.33333 8.54167 8.75 8.95833 9.16667 
9.375 9.58333 9.79167 10 
Z_COORDINATES 13 float
-10 -9.79167 -9.58333 -9.375 -9.16667 -8.95833 -8.75 -8.54167 -8.33333 
-8.125 -7.91667 -7.70833 -7.5 
POINT_DATA 2197
VECTORS grad float
-0.0170261 -0.0290205 0.0658596 -0.0180164 -0.02929 0.0653786 -0.0190405 -0.0295721 0.0649166 
-0.0201684 -0.0298069 0.0644074 -0.021323 -0.0300296 0.063886 -0.0225395 -0.0301514 0.0632434 
-0.0237682 -0.0302534 0.0625772 -0.0249998 -0.0302292 0.0617502 -0.0262319 -0.0301874 0.0609008 
-0.0274065 -0.0300144 0.0598805 -0.028576 -0.0298298 0.0588451 -0.0291624 -0.0295232 0.0576517 
-0.029724 -0.0292114 0.0564516 -0.0171711 -0.0305336 0.0648866 -0.0181838 -0.0306913 0.0642964 
-0.0192146 -0.0308646 0.0637249 -0.0203149 -0.0310076 0.0631238 -0.0214331 -0.0311427 0.0625149 
-0.0225941 -0.031195 0.0618108 -0.0237634 -0.031231 0.061088 -0.0249289 -0.0311565 0.0602321 
-0.0260938 -0.0310664 0.0593577 -0.0272034 -0.0308574 0.0583375 -0.0283081 -0.0306379 0.0573043 
-0.0288623 -0.0303049 0.0561342 -0.0293931 -0.029967 0.0549582 -0.0172552 -0.0320201 0.0637791 
-0.0182946 -0.0320685 0.0631019 -0.0193372 -0.0321348 0.0624415 -0.0204158 -0.0321858 0.0617638 
-0.0215036 -0.0322328 0.0610817 -0.0226144 -0.032214 0.060326 -0.0237296 -0.0321824 0.059556 
-0.0248331 -0.0320558 0.0586773 -0.025935 -0.0319159 0.0577836 -0.0269825 -0.0316695 0.0567671 
-0.0280252 -0.0314137 0.0557398 -0.0285484 -0.0310536 0.0545952 -0.0290494 -0.0306891 0.0534455 
-0.0171911 -0.0332947 0.062345 -0.0182587 -0.0332578 0.0616318 -0.0193182 -0.033238 0.0609313 
-0.0203855 -0.0332105 0.0602162 -0.0214548 -0.0331811 0.0594975 -0.0225284 -0.0330981 0.0587176 
-0.0236029 -0.0330047 0.0579258 -0.0246565 -0.0328289 0.0570421 -0.0257072 -0.0326417 0.0561456 
-0.0267023 -0.0323595 0.0551439 -0.0276923 -0.0320688 0.0541329 -0.0281886 -0.0316831 0.0530198 
-0.0286639 -0.0312933 0.0519024 -0.0170889 -0.034515 0.0608273 -0.0181851 -0.0343989 0.0600911 
-0.0192629 -0.0342984 0.0593629 -0.0203216 -0.034196 0.0586205 -0.0213754 -0.0340932 0.0578745 
-0.0224153 -0.0339476 0.0570775 -0.0234524 -0.0337937 0.0562704 -0.0244592 -0.0335697 0.0553863 
-0.0254618 -0.0333359 0.0544913 -0.0264068 -0.0330182 0.0535072 -0.0273467 -0.0326931 0.0525151 
-0.0278172 -0.032282 0.0514351 -0.0282677 -0.0318673 0.0503514 -0.016895 -0.0354559 0.0590987 
-0.0180118 -0.0352885 0.0583711 -0.0191035 -0.0351333 0.0576466 -0.0201564 -0.0349759 0.0569043 
-0.0211993 -0.034818 0.0561573 -0.0222132 -0.0346232 0.0553637 -0.0232214 -0.0344211 0.054561 
-0.0241905 -0.0341572 0.0536904 -0.0251541 -0.0338846 0.0528104 -0.0260574 -0.033537 0.0518522 
-0.0269554 -0.0331828 0.050887 -0.0274041 -0.0327506 0.0498449 -0.0278337 -0.032315 0.0487995 
-0.0166831 -0.0363423 0.057329 -0.0178191 -0.036129 0.0566161 -0.0189239 -0.0359242 0.0559015 
-0.0199714 -0.0357158 0.0551644 -0.0210043 -0.0355064 0.0544216 -0.0219937 -0.0352648 0.0536355 
-0.0229746 -0.0350168 0.0528409 -0.0239078 -0.0347147 0.0519868 -0.0248343 -0.034405 0.0511242 
-0.0256976 -0.0340286 0.0501937 -0.0265552 -0.0336462 0.049257 -0.0269829 -0.0331937 0.0482537 
-0.0273923 -0.0327381 0.0472474 -0.0164335 -0.0369368 0.0554602 -0.0175751 -0.036702 0.0547778 
-0.0186827 -0.0364713 0.0540898 -0.0197216 -0.0362317 0.0533742 -0.0207428 -0.0359898 0.0526514 
-0.0217107 -0.0357164 0.0518862 -0.0226681 -0.0354367 0.0511126 -0.023571 -0.0351072 0.0502842 
-0.0244663 -0.0347706 0.0494482 -0.0252959 -0.0343732 0.0485509 -0.0261196 -0.0339704 0.0476482 
-0.0265295 -0.0335032 0.0466862 -0.0269218 -0.0330334 0.0457216 -0.0161786 -0.0374905 0.0535776 
-0.0173239 -0.0372376 0.0529279 -0.0184328 -0.0369844 0.0522689 -0.0194626 -0.0367164 0.0515769 
-0.0204722 -0.0364447 0.0508764 -0.0214188 -0.0361415 0.0501339 -0.0223532 -0.0358321 0.0493831 
-0.0232266 -0.0354766 0.0485818 -0.0240916 -0.0351147 0.0477735 -0.0248883 -0.0346974 0.0469104 
-0.025679 -0.0342751 0.0460424 -0.0260715 -0.0337942 0.0451221 -0.0264472 -0.0333108 0.0441995 
-0.0159261 -0.0377774 0.0516881 -0.0170603 -0.0375236 0.051076 -0.0181579 -0.0372653 0.0504521 
-0.0191721 -0.0369853 0.0497912 -0.0201649 -0.0366997 0.0491207 -0.0210897 -0.0363804 0.0484079 
-0.0220012 -0.0360546 0.0476868 -0.0228481 -0.0356839 0.0469177 -0.0236859 -0.035307 0.046142 
-0.0244539 -0.0348779 0.0453159 -0.0252157 -0.0344442 0.0444854 -0.0255932 -0.0339558 0.0436073 
-0.0259544 -0.0334651 0.0427271 -0.0156738 -0.0380406 0.0497979 -0.0167956 -0.0377874 0.0492239 
-0.0178808 -0.0375256 0.0486358 -0.0188787 -0.037235 0.0480065 -0.0198543 -0.0369369 0.0473667 
-0.0207572 -0.0366028 0.0466842 -0.021646 -0.0362617 0.0459934 -0.0224665 -0.0358768 0.045257 
-0.0232774 -0.0354859 0.0445143 -0.0240171 -0.0350457 0.0437256 -0.0247504 -0.0346013 0.0429328 
-0.0251131 -0.034106 0.0420969 -0.0254599 -0.0336085 0.0412591 -0.015448 -0.0381145 0.0479678 
-0.0165439 -0.0378651 0.0474304 -0.0176049 -0.0376049 0.0468777 -0.0185794 -0.0373123 0.0462818 
-0.0195317 -0.0370113 0.0456749 -0.0204103 -0.0366727 0.0450251 -0.0212744 -0.0363268 0.044367 
-0.0220692 -0.035937 0.0436651 -0.0228544 -0.0355412 0.0429571 -0.0235682 -0.0350974 0.0422061 
-0.0242757 -0.0346494 0.0414513 -0.0246251 -0.0341521 0.0406565 -0.0249592 -0.0336528 0.0398601 
-0.0152233 -0.0381804 0.0461402 -0.0162928 -0.0379348 0.0456394 -0.0173291 -0.0376766 0.0451221 
-0.0182798 -0.0373823 0.0445597 -0.0192087 -0.0370788 0.0439856 -0.0200627 -0.0367361 0.0433687 
-0.0209021 -0.0363858 0.0427435 -0.0216713 -0.0359916 0.0420761 -0.0224307 -0.0355914 0.0414029 
-0.0231188 -0.0351442 0.0406896 -0.0238006 -0.0346928 0.0399727 -0.0241367 -0.0341938 0.0392192 
-0.0244582 -0.0336928 0.0384641 -0.0175475 -0.0297813 0.0674333 -0.0185137 -0.0301953 0.0669039 
-0.0195331 -0.0306193 0.0663985 -0.0207016 -0.0309702 0.0658491 -0.0219083 -0.0313024 0.0652883 
-0.0232034 -0.0315012 0.0646029 -0.0245158 -0.0316739 0.0638931 -0.0258404 -0.031688 0.0630161 
-0.0271666 -0.0316801 0.0621157 -0.0284311 -0.0315127 0.0610376 -0.0296901 -0.0313312 0.0599437 
-0.0303205 -0.0310048 0.0586865 -0.0309241 -0.0306723 0.0574223 -0.0177986 -0.0315514 0.0663792 
-0.018786 -0.0318115 0.0657352 -0.0198067 -0.0320878 0.065115 -0.0209358 -0.0323172 0.0644702 
-0.0220926 -0.0325346 0.0638191 -0.0233166 -0.0326443 0.0630713 -0.0245537 -0.032733 0.0623047 
-0.025797 -0.0326846 0.0614003 -0.0270411 -0.0326172 0.0604767 -0.0282279 -0.0324064 0.0594021 
-0.0294095 -0.0321829 0.058314 -0.0300019 -0.0318257 0.0570847 -0.0305691 -0.0314629 0.0558493 
-0.0179642 -0.0332827 0.0651817 -0.0189803 -0.0333942 0.0644477 -0.0200109 -0.0335264 0.0637354 
-0.0211093 -0.0336351 0.063012 -0.0222251 -0.0337378 0.0622858 -0.0233856 -0.0337573 0.0614864 
-0.0245549 -0.0337606 0.0606727 -0.0257226 -0.033648 0.0597475 -0.0268901 -0.0335193 0.0588067 
-0.028003 -0.0332638 0.0577395 -0.029111 -0.032997 0.0566609 -0.0296668 -0.0326085 0.0554617 
-0.0301991 -0.0322148 0.0542572 -0.0179278 -0.0347418 0.0636453 -0.0189786 -0.0347393 0.0628762 
-0.0200296 -0.0347577 0.0621242 -0.0211137 -0.0347655 0.061364 -0.0222063 -0.0347707 0.0606017 
-0.0233217 -0.03471 0.0597794 -0.0244415 -0.0346365 0.0589454 -0.0255498 -0.0344645 0.0580177 
-0.0266564 -0.0342787 0.0570769 -0.0277078 -0.033981 0.0560279 -0.0287543 -0.0336733 0.0549694 
-0.0292789 -0.0332555 0.0538062 -0.0297814 -0.0328331 0.0526385 -0.0178396 -0.0361312 0.062022 
-0.0189267 -0.0360234 0.0612319 -0.0200007 -0.0359359 0.0604537 -0.0210747 -0.0358479 0.0596673 
-0.0221486 -0.0357599 0.0588789 -0.0232236 -0.0356216 0.0580411 -0.0242987 -0.0354736 0.0571937 
-0.0253516 -0.0352433 0.0562682 -0.0264014 -0.0350014 0.0553317 -0.0273945 -0.0346622 0.0543039 
-0.0283826 -0.0343143 0.0532679 -0.0288775 -0.0338678 0.0521423 -0.0293514 -0.0334171 0.0510129 
-0.0176286 -0.0371776 0.0601877 -0.0187445 -0.0370024 0.0594097 -0.0198387 -0.036844 0.0586381 
-0.020908 -0.0366867 0.0578542 -0.0219709 -0.0365298 0.057067 -0.0230164 -0.0363313 0.056235 
-0.0240586 -0.0361246 0.0553943 -0.0250682 -0.0358468 0.0544853 -0.0260733 -0.0355592 0.0535667 
-0.0270188 -0.0351855 0.0525684 -0.0279589 -0.0348041 0.051563 -0.028429 -0.0343341 0.0504793 
-0.0288791 -0.0338604 0.0493922 -0.0173935 -0.0381571 0.0583123 -0.018537 -0.0379218 0.0575528 
-0.0196508 -0.0376994 0.0567943 -0.0207164 -0.0374781 0.0560183 -0.0217696 -0.037257 0.0552377 
-0.0227879 -0.0370015 0.0544157 -0.0237994 -0.0367393 0.0535857 -0.0247682 -0.0364162 0.0526959 
-0.0257309 -0.0360847 0.0517978 -0.0266308 -0.035678 0.0508307 -0.0275251 -0.0352645 0.0498574 
-0.0279714 -0.034772 0.0488164 -0.0283985 -0.0342761 0.0477725 -0.0171068 -0.0387899 0.0563456 
-0.0182628 -0.0385262 0.0556205 -0.019385 -0.0382703 0.0548921 -0.0204443 -0.0380103 0.0541404 
-0.0214874 -0.0377493 0.0533826 -0.022483 -0.0374556 0.0525841 -0.0234693 -0.0371555 0.0517777 
-0.0244047 -0.0368006 0.0509166 -0.025333 -0.0364379 0.0500478 -0.0261953 -0.0360075 0.0491173 
-0.0270518 -0.035571 0.0481812 -0.0274782 -0.0350628 0.0471851 -0.0278863 -0.0345516 0.0461864 
-0.0168129 -0.0393744 0.0543661 -0.0179792 -0.0390866 0.0536776 -0.0191084 -0.0388015 0.0529818 
-0.020161 -0.0385065 0.0522566 -0.021194 -0.0382088 0.0515239 -0.0221675 -0.0378795 0.0507508 
-0.0231293 -0.0375441 0.0499698 -0.0240324 -0.0371591 0.0491386 -0.0249273 -0.0367671 0.0483004 
-0.0257532 -0.0363142 0.0474072 -0.0265731 -0.0358559 0.0465092 -0.0269802 -0.0353331 0.0455582 
-0.0273698 -0.0348076 0.044605 -0.0165188 -0.0396509 0.0523912 -0.0176783 -0.0393608 0.051744 
-0.0188001 -0.0390686 0.0510865 -0.019839 -0.0387586 0.0503951 -0.0208566 -0.0384441 0.0496951 
-0.0218079 -0.0380959 0.0489542 -0.0227464 -0.0377412 0.0482053 -0.023621 -0.0373389 0.047409 
-0.0244867 -0.03693 0.046606 -0.0252815 -0.0364643 0.0457527 -0.02607 -0.0359936 0.0448949 
-0.0264607 -0.0354634 0.0439892 -0.0268345 -0.0349306 0.0430814 -0.0162246 -0.0399 0.0504168 
-0.0173759 -0.0396096 0.0498111 -0.018489 -0.0393122 0.0491925 -0.0195136 -0.0389891 0.0485356 
-0.0205154 -0.0386594 0.0478689 -0.0214445 -0.0382939 0.0471608 -0.0223595 -0.0379213 0.0464447 
-0.0232061 -0.0375028 0.0456837 -0.0240431 -0.037078 0.0449163 -0.0248071 -0.0366004 0.0441031 
-0.0255647 -0.0361182 0.0432857 -0.0259393 -0.0355812 0.0424253 -0.0262977 -0.0350419 0.0415629 
-0.0159602 -0.0399581 0.0485154 -0.0170878 -0.0396717 0.0479492 -0.0181787 -0.039376 0.0473688 
-0.0191807 -0.0390504 0.0467476 -0.0201599 -0.0387171 0.046116 -0.0210644 -0.0383463 0.0454429 
-0.0219543 -0.0379681 0.0447617 -0.0227739 -0.0375443 0.0440373 -0.0235838 -0.0371142 0.0433069 
-0.0243203 -0.0366328 0.0425337 -0.0250504 -0.0361468 0.0417566 -0.0254109 -0.0356081 0.0409398 
-0.0257556 -0.0350672 0.0401214 -0.0156972 -0.040008 0.0466171 -0.0168003 -0.0397258 0.0460903 
-0.0178683 -0.0394322 0.045548 -0.0188474 -0.0391045 0.0449627 -0.0198038 -0.0387681 0.0443663 
-0.0206835 -0.0383925 0.0437282 -0.0215483 -0.0380093 0.043082 -0.022341 -0.0375806 0.0423943 
-0.0231238 -0.0371456 0.0417009 -0.023833 -0.0366607 0.0409676 -0.0245357 -0.0361714 0.0402309 
-0.0248821 -0.0356312 0.0394577 -0.0252133 -0.0350889 0.0386831 -0.0180781 -0.0305527 0.0690827 
-0.0190189 -0.0311126 0.0685021 -0.0200325 -0.03168 0.0679509 -0.0212413 -0.032148 0.067359 
-0.0225002 -0.0325904 0.0667568 -0.0238743 -0.0328664 0.0660262 -0.0252709 -0.03311 0.0652706 
-0.026689 -0.0331624 0.0643408 -0.02811 -0.0331881 0.0633867 -0.029465 -0.0330258 0.0622477 
-0.030814 -0.0328468 0.0610923 -0.0314886 -0.0325 0.0597681 -0.0321345 -0.0321459 0.0584366 
-0.0184361 -0.0325823 0.0679414 -0.0193968 -0.0329457 0.067241 -0.0204064 -0.0333257 0.0665697 
-0.0215638 -0.033642 0.0658791 -0.022759 -0.033942 0.0651835 -0.0240462 -0.0341093 0.0643899 
-0.0253514 -0.0342507 0.0635772 -0.026673 -0.0342283 0.0626218 -0.0279968 -0.034183 0.0616466 
-0.0292611 -0.0339699 0.0605148 -0.0305201 -0.0337419 0.0593691 -0.0311507 -0.0333599 0.0580775 
-0.0317546 -0.0329714 0.0567797 -0.0186837 -0.0345606 0.0666478 -0.019675 -0.0347353 0.0658544 
-0.0206925 -0.0349336 0.0650878 -0.0218102 -0.0351002 0.0643167 -0.0229536 -0.0352587 0.0635443 
-0.024164 -0.0353164 0.0626991 -0.0253875 -0.0353544 0.0618397 -0.0266197 -0.0352556 0.0608656 
-0.0278532 -0.0351377 0.0598755 -0.0290317 -0.0348725 0.0587549 -0.0302053 -0.0345942 0.0576226 
-0.0307939 -0.0341765 0.056366 -0.0313575 -0.0337529 0.0551042 -0.0186748 -0.0362051 0.0650029 
-0.0197074 -0.0362368 0.0641756 -0.0207488 -0.0362933 0.0633699 -0.0218492 -0.0363364 0.0625626 
-0.0229647 -0.036376 0.0617548 -0.0241218 -0.0363375 0.0608882 -0.025287 -0.0362838 0.06001 
-0.0264501 -0.036115 0.0590362 -0.0276129 -0.0359301 0.058049 -0.0287209 -0.0356164 0.0569505 
-0.029824 -0.0352911 0.0558421 -0.0303771 -0.0348407 0.0546263 -0.0309068 -0.0343849 0.053406 
-0.0186001 -0.0377641 0.0632681 -0.0196769 -0.0376643 0.0624219 -0.0207462 -0.0375894 0.0615915 
-0.0218349 -0.0375156 0.0607593 -0.0229286 -0.0374421 0.0599267 -0.0240385 -0.0373108 0.0590464 
-0.0251516 -0.0371683 0.0581567 -0.0262507 -0.0369312 0.057188 -0.0273479 -0.036681 0.0562081 
-0.0283893 -0.0363196 0.0551346 -0.0294257 -0.0359483 0.0540528 -0.0299451 -0.0354657 0.0528793 
-0.0304424 -0.0349785 0.051702 -0.0183712 -0.0389158 0.0613225 -0.0194853 -0.0387323 0.0604921 
-0.0205811 -0.0385703 0.0596715 -0.0216663 -0.0384128 0.0588442 -0.0227488 -0.0382565 0.0580152 
-0.0238259 -0.0380539 0.0571432 -0.0249019 -0.0378423 0.0562629 -0.0259522 -0.0375503 0.0553136 
-0.0269988 -0.037247 0.0543548 -0.0279865 -0.0368466 0.0533146 -0.028969 -0.0364376 0.0522671 
-0.0294605 -0.0359292 0.0511399 -0.0299312 -0.0354166 0.0500092 -0.0181122 -0.0399881 0.0593359 
-0.0192622 -0.0397302 0.058528 -0.0203843 -0.0394897 0.0577239 -0.0214676 -0.039255 0.0569073 
-0.0225409 -0.0390218 0.0560874 -0.023588 -0.0387521 0.0552281 -0.0246299 -0.0384752 0.0543611 
-0.0256342 -0.0381308 0.0534342 -0.0266333 -0.037777 0.052499 -0.0275699 -0.0373394 0.0514937 
-0.028501 -0.0368943 0.0504822 -0.0289658 -0.0363612 0.0494018 -0.0294108 -0.0358244 0.0483185 
-0.0177876 -0.0406585 0.0572665 -0.0189572 -0.0403652 0.056497 -0.0200935 -0.0400836 0.0557268 
-0.0211728 -0.0398028 0.0549375 -0.0222375 -0.0395221 0.0541433 -0.0232607 -0.0392078 0.0533102 
-0.0242759 -0.0388869 0.0524696 -0.0252437 -0.0385061 0.0515744 -0.0262049 -0.038117 0.0506715 
-0.0271002 -0.0376529 0.0497062 -0.0279895 -0.0371822 0.0487354 -0.0284324 -0.0366325 0.0477037 
-0.0288564 -0.0360795 0.0466693 -0.017454 -0.0412728 0.0551854 -0.0186407 -0.0409495 0.0544568 
-0.0197896 -0.0406322 0.0537227 -0.0208647 -0.0403095 0.0529631 -0.0219208 -0.0399854 0.0521969 
-0.022921 -0.0396297 0.051392 -0.0239103 -0.0392678 0.0505796 -0.024843 -0.0388528 0.0497172 
-0.0257678 -0.0384303 0.0488479 -0.026623 -0.0379415 0.0479234 -0.027472 -0.0374467 0.0469939 
-0.0278937 -0.0368815 0.046011 -0.0282972 -0.0363132 0.0450259 -0.0171175 -0.0415379 0.0531214 
-0.018302 -0.0412109 0.0524376 -0.0194475 -0.0408844 0.0517452 -0.0205108 -0.040544 0.0510223 
-0.021553 -0.0402001 0.0502915 -0.0225307 -0.0398226 0.0495215 -0.0234959 -0.0394386 0.0487438 
-0.0243983 -0.0390043 0.047919 -0.0252919 -0.0385629 0.0470877 -0.0261135 -0.0380602 0.046206 
-0.0269286 -0.0375521 0.0453197 -0.0273326 -0.0369796 0.0443852 -0.0277191 -0.0364043 0.0434487 
-0.0167807 -0.0417719 0.0510589 -0.0179613 -0.0414437 0.0504202 -0.019102 -0.0411104 0.0497702 
-0.0201528 -0.0407544 0.0490845 -0.0211806 -0.0403926 0.0483898 -0.0221359 -0.0399952 0.0476552 
-0.0230771 -0.0395907 0.0469128 -0.0239497 -0.0391384 0.0461261 -0.0248126 -0.0386793 0.0453332 
-0.0256011 -0.0381639 0.0444944 -0.0263829 -0.0376434 0.0436515 -0.0267696 -0.0370643 0.0427654 
-0.0271394 -0.0364827 0.0418775 -0.0164774 -0.0418135 0.0490831 -0.0176363 -0.0414896 0.048487 
-0.0187567 -0.0411581 0.0478778 -0.0197859 -0.0407991 0.0472304 -0.0207919 -0.040433 0.0465732 
-0.0217222 -0.0400296 0.0458759 -0.0226378 -0.0396189 0.0451706 -0.0234823 -0.0391607 0.0444229 
-0.0243167 -0.0386958 0.0436692 -0.025076 -0.0381764 0.0428728 -0.0258286 -0.0376522 0.0420726 
-0.0262002 -0.0370717 0.0412329 -0.0265555 -0.0364887 0.0403914 -0.0161754 -0.0418468 0.0471109 
-0.017312 -0.0415277 0.0465573 -0.0184113 -0.0411982 0.045989 -0.0194187 -0.0408367 0.0453799 
-0.0204024 -0.040467 0.0447603 -0.0213077 -0.0400582 0.0441002 -0.0221977 -0.0396418 0.0434322 
-0.0230141 -0.0391782 0.0427235 -0.0238202 -0.038708 0.0420091 -0.0245504 -0.0381851 0.0412551 
-0.025274 -0.0376575 0.0404976 -0.0256306 -0.0370757 0.0397041 -0.0259715 -0.0364917 0.0389091 
-0.0188258 -0.031573 0.0725081 -0.0197078 -0.0323139 0.0718141 -0.0206924 -0.0330573 0.0711605 
-0.0219368 -0.0336634 0.0704741 -0.0232478 -0.0342344 0.0697793 -0.0247102 -0.0345949 0.068949 
-0.0262022 -0.0349143 0.0680921 -0.0277277 -0.0350008 0.0670472 -0.029258 -0.0350548 0.065976 
-0.030716 -0.0348856 0.0647053 -0.0321676 -0.0346965 0.0634168 -0.032892 -0.0343121 0.0619485 
-0.0335855 -0.0339194 0.0604725 -0.0193105 -0.033921 0.0711411 -0.02021 -0.0344066 0.0703215 
-0.0211824 -0.0349086 0.0695419 -0.0223591 -0.0353237 0.0687539 -0.0235881 -0.0357164 0.0679637 
-0.0249433 -0.0359436 0.0670721 -0.0263231 -0.0361386 0.0661608 -0.027733 -0.0361358 0.0650965 
-0.029147 -0.0361055 0.0640109 -0.0304988 -0.0358773 0.062757 -0.031845 -0.0356315 0.0614882 
-0.0325185 -0.0352076 0.0600645 -0.0331633 -0.0347761 0.0586342 -0.0196491 -0.0361958 0.0696075 
-0.0205822 -0.0364386 0.0686935 -0.0215599 -0.0367089 0.0678166 -0.0226852 -0.0369367 0.0669476 
-0.0238484 -0.0371538 0.0660806 -0.0251096 -0.0372476 0.0651403 -0.02639 -0.0373174 0.0641858 
-0.0276934 -0.0372241 0.0631095 -0.0290001 -0.037108 0.0620161 -0.0302517 -0.0368197 0.0607832 
-0.0314985 -0.0365161 0.0595379 -0.0321233 -0.0360523 0.058161 -0.0327218 -0.0355816 0.0567785 
-0.0196605 -0.0380478 0.0677109 -0.0206447 -0.0381104 0.0667681 -0.0216516 -0.0382036 0.065856 
-0.0227561 -0.03828 0.0649544 -0.0238856 -0.038352 0.0640555 -0.0250836 -0.0383307 0.0630987 
-0.026295 -0.0382913 0.0621308 -0.0275175 -0.0381164 0.0610619 -0.0287416 -0.0379225 0.0599789 
-0.0299119 -0.0375792 0.0587776 -0.0310773 -0.0372226 0.0575658 -0.0316616 -0.0367229 0.0562408 
-0.0322211 -0.0362171 0.0549109 -0.019588 -0.0397915 0.0657214 -0.0206278 -0.0396899 0.0647664 
-0.02167 -0.03962 0.0638351 -0.0227615 -0.039554 0.0629133 -0.0238656 -0.0394889 0.061994 
-0.0250083 -0.0393572 0.061029 -0.0261585 -0.0392125 0.0600552 -0.0273067 -0.0389583 0.0589988 
-0.0284545 -0.0386889 0.0579309 -0.0295482 -0.0382918 0.0567639 -0.030637 -0.0378835 0.0555881 
-0.0311827 -0.0373489 0.0543163 -0.0317053 -0.036809 0.0530404 -0.0193244 -0.0410441 0.0635333 
-0.0204136 -0.0408399 0.0626026 -0.0214915 -0.0406638 0.0616884 -0.0225817 -0.0404976 0.0607776 
-0.023675 -0.0403339 0.0598677 -0.0247809 -0.0401186 0.0589171 -0.0258893 -0.0398933 0.0579587 
-0.0269819 -0.0395763 0.0569291 -0.0280722 -0.0392466 0.0558895 -0.0291051 -0.0388064 0.0547645 
-0.0301329 -0.0383564 0.0536319 -0.0306473 -0.0377945 0.052416 -0.0311399 -0.0372278 0.0511965 
-0.0190235 -0.0422008 0.0613064 -0.020161 -0.0419061 0.0604072 -0.0212747 -0.0416348 0.0595172 
-0.0223658 -0.0413767 0.0586235 -0.0234511 -0.0411218 0.0577287 -0.0245239 -0.0408282 0.056797 
-0.0255942 -0.040527 0.0558582 -0.0266348 -0.0401506 0.0548581 -0.0276713 -0.0397636 0.0538495 
-0.0286466 -0.0392823 0.052768 -0.0296164 -0.0387926 0.0516799 -0.0301009 -0.0382048 0.0505204 
-0.0305647 -0.0376129 0.0493578 -0.0186435 -0.0428897 0.0590221 -0.0198104 -0.0425526 0.0581698 
-0.0209466 -0.0422326 0.0573212 -0.0220373 -0.0419204 0.0564611 -0.0231163 -0.0416102 0.055598 
-0.0241641 -0.0412655 0.0546986 -0.0252059 -0.0409141 0.0537921 -0.0262063 -0.040497 0.0528303 
-0.027201 -0.0400706 0.0518607 -0.0281304 -0.039561 0.0508266 -0.0290539 -0.039044 0.0497867 
-0.0295142 -0.0384395 0.048684 -0.0299547 -0.0378313 0.0475786 -0.0182525 -0.0435134 0.0567299 
-0.0194462 -0.0431405 0.0559266 -0.0206031 -0.0427782 0.0551216 -0.0216931 -0.0424173 0.0542975 
-0.022766 -0.0420567 0.0534685 -0.02379 -0.0416648 0.0526032 -0.0248045 -0.0412668 0.0517309 
-0.0257664 -0.0408116 0.0508084 -0.026721 -0.0403483 0.0498789 -0.0276061 -0.0398122 0.0488929 
-0.028485 -0.0392696 0.0479018 -0.0289218 -0.0386497 0.0468559 -0.0293398 -0.0380265 0.0458078 
-0.0178585 -0.0437423 0.0544853 -0.0190565 -0.0433654 0.0537338 -0.0202157 -0.0429927 0.052977 
-0.0212969 -0.0426117 0.0521952 -0.022358 -0.0422286 0.0514069 -0.0233593 -0.0418126 0.0505818 
-0.024349 -0.0413901 0.0497495 -0.0252785 -0.0409141 0.0488703 -0.0261997 -0.0404306 0.0479845 
-0.0270482 -0.0398805 0.0470473 -0.0278904 -0.0393245 0.0461056 -0.0283079 -0.0386984 0.0451149 
-0.0287074 -0.0380692 0.0441221 -0.0174643 -0.0439361 0.0522449 -0.0186646 -0.0435581 0.0515455 
-0.0198244 -0.0431777 0.0508372 -0.020896 -0.0427792 0.0500983 -0.0219448 -0.042376 0.0493515 
-0.0229236 -0.0419379 0.048567 -0.0238887 -0.041493 0.0477752 -0.0247863 -0.0409977 0.0469396 
-0.0256746 -0.0404954 0.0460978 -0.0264874 -0.0399326 0.0452096 -0.0272934 -0.0393643 0.0443174 
-0.0276921 -0.0387327 0.0433817 -0.0280734 -0.0380984 0.0424441 -0.0171098 -0.0439478 0.0501221 
-0.0182919 -0.0435751 0.0494708 -0.0194345 -0.043197 0.0488086 -0.0204861 -0.0427953 0.0481125 
-0.0215143 -0.0423876 0.0474078 -0.022468 -0.0419431 0.0466649 -0.0234072 -0.0414915 0.0459147 
-0.0242754 -0.0409902 0.0451226 -0.0251336 -0.040482 0.0443248 -0.0259153 -0.0399156 0.0434841 
-0.0266901 -0.0393439 0.0426396 -0.0270726 -0.0387117 0.0417555 -0.0274384 -0.0380769 0.0408698 
-0.016757 -0.0439516 0.0480043 -0.0179201 -0.0435846 0.0474009 -0.0190447 -0.0432092 0.0467848 
-0.0200759 -0.0428049 0.0461315 -0.0210831 -0.0423933 0.0454688 -0.0220116 -0.0419431 0.0447676 
-0.0229248 -0.0414855 0.044059 -0.0237636 -0.0409788 0.0433106 -0.024592 -0.0404653 0.0425566 
-0.0253427 -0.0398956 0.0417632 -0.0260865 -0.039321 0.0409664 -0.0264529 -0.0386884 0.0401339 
-0.0268033 -0.0380533 0.0392999 -0.0195979 -0.0326363 0.0759773 -0.0204176 -0.0335595 0.0751676 
-0.0213707 -0.03448 0.0744094 -0.0226501 -0.0352248 0.0736263 -0.0240132 -0.0359244 0.072837 
-0.0255648 -0.0363688 0.0719047 -0.0271532 -0.0367633 0.0709445 -0.0287875 -0.0368826 0.0697819 
-0.0304283 -0.0369634 0.0685911 -0.0319906 -0.0367852 0.0671858 -0.0335459 -0.0365839 0.0657615 
-0.0343206 -0.0361596 0.0641462 -0.0350622 -0.0357258 0.0625228 -0.0202092 -0.0353055 0.0743724 
-0.0210441 -0.0359133 0.0734323 -0.0219769 -0.0365376 0.0725433 -0.023172 -0.0370511 0.0716565 
-0.0244344 -0.0375363 0.0707704 -0.0258581 -0.0378226 0.0697793 -0.0273133 -0.0380701 0.0687678 
-0.0288125 -0.0380856 0.0675927 -0.0303179 -0.0380688 0.0663947 -0.0317581 -0.0378235 0.0650166 
-0.0331925 -0.0375579 0.0636225 -0.0339092 -0.0370897 0.0620643 -0.0345954 -0.0366128 0.0604991 
-0.020638 -0.0378785 0.0725874 -0.0215097 -0.0381885 0.0715526 -0.0224452 -0.0385301 0.0705651 
-0.0235772 -0.0388186 0.0695977 -0.0247595 -0.0390934 0.0686353 -0.0260719 -0.0392223 0.0675991 
-0.0274097 -0.0393228 0.0665485 -0.0287852 -0.0392335 0.0653685 -0.0301659 -0.0391177 0.0641705 
-0.0314914 -0.0388044 0.0628236 -0.032812 -0.0384736 0.0614635 -0.0334735 -0.0379613 0.0599645 
-0.0341071 -0.0374413 0.0584594 -0.0206679 -0.0399374 0.070431 -0.0216009 -0.0400297 0.0693729 
-0.0225712 -0.0401585 0.0683546 -0.0236789 -0.0402672 0.0673586 -0.0248219 -0.0403707 0.0663683 
-0.0260609 -0.0403655 0.065321 -0.0273188 -0.0403391 0.0642625 -0.0286014 -0.0401566 0.0630976 
-0.0298875 -0.0399523 0.0619179 -0.0311205 -0.0395776 0.0606125 -0.0323489 -0.0391878 0.059296 
-0.0329647 -0.0386368 0.0578602 -0.0335544 -0.0380789 0.0564194 -0.0205957 -0.0418645 0.0681793 
-0.0215962 -0.0417596 0.0671163 -0.0226093 -0.0416934 0.0660846 -0.0237028 -0.041634 0.0650734 
-0.0248168 -0.0415763 0.0640675 -0.0259924 -0.041443 0.0630177 -0.0271798 -0.0412949 0.0619594 
-0.0283775 -0.0410221 0.0608148 -0.0295765 -0.0407319 0.0596581 -0.030723 -0.0402976 0.0583968 
-0.0318647 -0.0398504 0.0571262 -0.0324371 -0.0392619 0.0557548 -0.0329852 -0.0386674 0.0543792 
-0.0202953 -0.0432153 0.0657435 -0.0213579 -0.0429889 0.0647135 -0.0224162 -0.0427974 0.0637065 
-0.0235106 -0.0426212 0.0627126 -0.0246143 -0.0424491 0.0617221 -0.025749 -0.0422199 0.060693 
-0.0268899 -0.0419797 0.0596565 -0.028025 -0.0416365 0.0585461 -0.0291595 -0.0412789 0.0574254 
-0.030238 -0.0407972 0.056215 -0.0313115 -0.0403046 0.0549965 -0.031849 -0.0396874 0.0536911 
-0.0323636 -0.039065 0.052382 -0.0199506 -0.0444537 0.0632718 -0.0210739 -0.0441205 0.0622823 
-0.0221779 -0.0438173 0.0613074 -0.0232763 -0.0435345 0.0603371 -0.0243732 -0.0432569 0.059368 
-0.0254717 -0.0429383 0.0583642 -0.0265704 -0.0426116 0.0573536 -0.0276475 -0.0422018 0.0562802 
-0.0287217 -0.0417804 0.0551981 -0.0297359 -0.0412539 0.0540398 -0.0307449 -0.0407181 0.0528747 
-0.0312491 -0.0400741 0.0516355 -0.0317319 -0.0394254 0.0503931 -0.0195135 -0.0451578 0.06077 
-0.0206765 -0.0447754 0.0598358 -0.0218115 -0.0444157 0.0589097 -0.022913 -0.0440711 0.0579794 
-0.0240059 -0.0437303 0.0570481 -0.0250783 -0.0433543 0.0560826 -0.0261466 -0.0429714 0.0551105 
-0.0271799 -0.0425167 0.054082 -0.0282082 -0.0420519 0.0530456 -0.0291719 -0.0414954 0.0519424 
-0.0301299 -0.0409307 0.0508333 -0.0306076 -0.04027 0.0496593 -0.0310648 -0.0396052 0.0484825 
-0.0190635 -0.0457874 0.058264 -0.0202631 -0.0453638 0.0573872 -0.0214271 -0.0449554 0.0565121 
-0.0225317 -0.0445552 0.0556242 -0.023621 -0.0441572 0.0547329 -0.0246687 -0.0437282 0.0538076 
-0.0257083 -0.0432931 0.0528757 -0.0266996 -0.0427966 0.0518932 -0.0276841 -0.0422914 0.0509036 
-0.0285993 -0.0417068 0.049856 -0.0295083 -0.0411152 0.0488032 -0.0299602 -0.0404393 0.0476941 
-0.0303928 -0.0397598 0.0465827 -0.0186108 -0.045977 0.0558376 -0.0198214 -0.0455492 0.0550195 
-0.0209935 -0.0451291 0.0541989 -0.0220921 -0.0447066 0.0533589 -0.0231718 -0.0442835 0.0525138 
-0.0241967 -0.043828 0.051634 -0.0252108 -0.0433663 0.0507473 -0.0261675 -0.0428476 0.0498138 
-0.0271162 -0.0423209 0.0488736 -0.027992 -0.0417224 0.0478811 -0.0288612 -0.0411175 0.046884 
-0.0292923 -0.0404365 0.045837 -0.0297048 -0.0397523 0.0447878 -0.0181578 -0.0461274 0.0534183 
-0.0193772 -0.0456987 0.052659 -0.0205555 -0.0452703 0.0518932 -0.0216473 -0.0448284 0.0511015 
-0.022717 -0.0443831 0.0503032 -0.0237191 -0.0439036 0.0494693 -0.024708 -0.0434173 0.0486284 
-0.0256308 -0.0428783 0.047744 -0.0265445 -0.0423318 0.0468536 -0.0273816 -0.0417206 0.0459162 
-0.0282119 -0.0411036 0.0449747 -0.0286226 -0.0404184 0.0439894 -0.0290154 -0.0397304 0.0430021 
-0.0177513 -0.0461075 0.0511483 -0.018956 -0.0456851 0.0504424 -0.0201202 -0.0452596 0.0497278 
-0.0211938 -0.0448145 0.0489836 -0.022244 -0.0443644 0.0482317 -0.0232209 -0.0438781 0.0474438 
-0.0241835 -0.0433848 0.0466489 -0.0250755 -0.0428397 0.0458128 -0.0259576 -0.0422873 0.0449709 
-0.0267616 -0.0416729 0.0440861 -0.0275587 -0.041053 0.0431974 -0.0279521 -0.0403681 0.0422691 
-0.0283283 -0.0396805 0.0413392 -0.0173467 -0.0460804 0.0488846 -0.0185357 -0.0456647 0.0482319 
-0.0196851 -0.0452425 0.0475684 -0.0207398 -0.0447948 0.0468716 -0.0217703 -0.0443406 0.0461662 
-0.0227219 -0.0438483 0.0454243 -0.0236581 -0.0433487 0.0446754 -0.0245193 -0.0427982 0.0438875 
-0.02537 -0.0422405 0.0430941 -0.0261412 -0.0416233 0.0422616 -0.0269052 -0.0410008 0.0414257 
-0.0272815 -0.0403164 0.0405543 -0.0276413 -0.0396293 0.0396815 -0.0206454 -0.0341827 0.0799389 
-0.0213631 -0.0353029 0.0789874 -0.0222564 -0.0364138 0.0781 -0.0235642 -0.0373017 0.077197 
-0.0249782 -0.0381323 0.07629 -0.0266287 -0.038654 0.0752311 -0.0283254 -0.0391154 0.0741427 
-0.0300837 -0.0392516 0.0728347 -0.0318506 -0.0393424 0.071496 -0.0335305 -0.0391324 0.0699253 
-0.0352028 -0.0388958 0.0683339 -0.0360336 -0.0384047 0.0665391 -0.0368287 -0.0379027 0.0647357 
-0.0213823 -0.0372045 0.0779586 -0.0221142 -0.0379358 0.0768841 -0.0229785 -0.0386842 0.0758724 
-0.0241827 -0.039294 0.0748727 -0.025474 -0.0398682 0.0738761 -0.0269724 -0.0402042 0.0727683 
-0.0285111 -0.0404937 0.0716388 -0.0301116 -0.0405109 0.0703316 -0.0317206 -0.0404902 0.0689996 
-0.0332603 -0.0402055 0.0674723 -0.0347938 -0.0398973 0.0659278 -0.0355586 -0.0393588 0.0642084 
-0.0362907 -0.0388106 0.0624816 -0.0218911 -0.0400954 0.0757958 -0.0226664 -0.0404633 0.0746368 
-0.0235323 -0.0408689 0.0735352 -0.0246602 -0.0412099 0.072463 -0.0258553 -0.0415344 0.0713983 
-0.0272222 -0.0416867 0.0702555 -0.0286225 -0.0418052 0.0690974 -0.0300791 -0.041703 0.0677986 
-0.0315435 -0.0415699 0.06648 -0.0329517 -0.0412099 0.0650001 -0.0343549 -0.0408298 0.0635058 
-0.0350571 -0.0402443 0.0618635 -0.0357294 -0.0396502 0.0602149 -0.0219196 -0.0423539 0.0732862 
-0.022771 -0.0424618 0.0721158 -0.0236803 -0.0426144 0.0709936 -0.024781 -0.0427447 0.0699019 
-0.0259307 -0.0428694 0.0688181 -0.0272127 -0.0428675 0.067674 -0.0285204 -0.042841 0.0665181 
-0.0298702 -0.0426341 0.0652464 -0.0312258 -0.0424021 0.0639585 -0.032529 -0.0419754 0.0625345 
-0.0338275 -0.0415315 0.0610983 -0.034478 -0.0409058 0.0595353 -0.0351009 -0.0402724 0.0579668 
-0.021825 -0.0444502 0.0706878 -0.0227609 -0.0443247 0.0695247 -0.0237243 -0.0442473 0.0683995 
-0.0248103 -0.0441818 0.067302 -0.0259277 -0.0441194 0.0662116 -0.0271367 -0.043971 0.0650748 
-0.0283636 -0.0438059 0.063929 -0.029616 -0.0434983 0.0626893 -0.030872 -0.0431709 0.0614365 
-0.0320769 -0.0426797 0.0600705 -0.0332774 -0.042174 0.0586944 -0.033879 -0.0415099 0.0572112 
-0.0344552 -0.0408389 0.0557235 -0.0214656 -0.0458703 0.0679476 -0.0224801 -0.0456041 0.0668284 
-0.0235015 -0.0453819 0.0657375 -0.0245919 -0.0451829 0.0646656 -0.0257 -0.0449898 0.0635986 
-0.0268636 -0.0447337 0.0624913 -0.0280382 -0.0444654 0.061376 -0.0292201 -0.0440805 0.0601808 
-0.030403 -0.0436793 0.0589743 -0.0315317 -0.0431383 0.0576711 -0.0326556 -0.0425848 0.0563593 