# vtk DataFile Version 2.0
vtk output
ASCII
DATASET RECTILINEAR_GRID
DIMENSIONS 13 13 13
X_COORDINATES 13 float
2.5 2.70833 2.91667 3.125 3.33333 3.54167 3.75 3.95833 4.16667 
4.375 4.58333 4.79167 5 
Y_COORDINATES 13 float
0 0.208333 0.416667 0.625 0.833333 1.04167 1.25 1.45833 1.66667 
1.875 2.08333 2.29167 2.5 
Z_COORDINATES 13 float
2.5 2.70833 2.91667 3.125 3.33333 3.54167 3.75 3.95833 4.16667 
4.375 4.58333 4.79167 5 
POINT_DATA 2197
VECTORS grad float
0.0448081 0.0181043 -0.015216 0.0438896 0.019845 -0.0180262 0.0427603 0.0221621 -0.02111 
0.0415662 0.0247727 -0.0243286 0.0402254 0.0280488 -0.0278527 0.0388495 0.0317339 -0.0315456 
0.0374075 0.0361889 -0.0355563 0.0359798 0.041213 -0.0397569 0.0345744 0.0471355 -0.0442575 
0.0332406 0.0538514 -0.0489401 0.0320024 0.0616253 -0.0538656 0.0308618 0.0705067 -0.0589207 
0.0298316 0.0806401 -0.0641223 0.0464833 0.0177449 -0.0177163 0.045955 0.0194582 -0.0203166 
0.0452781 0.0217422 -0.0231529 0.0445686 0.0243185 -0.0260995 0.0437853 0.0275571 -0.0292965 
0.0430142 0.0312061 -0.0326201 0.0422664 0.0356276 -0.0361822 0.0416034 0.0406285 -0.0398635 
0.0410744 0.0465441 -0.0437331 0.040722 0.0532878 -0.0476691 0.0406049 0.0611356 -0.0516934 
0.0407358 0.070184 -0.0556584 0.0411472 0.0805894 -0.0595564 0.0480736 0.01688 -0.0201141 
0.0479164 0.0185257 -0.0225118 0.0476711 0.0207208 -0.0251125 0.0474246 0.0231958 -0.0278025 
0.0471753 0.0263051 -0.0306948 0.0469866 0.0298054 -0.0336764 0.0469119 0.0340415 -0.0368258 
0.047 0.0388286 -0.0400285 0.047345 0.0444856 -0.0433154 0.0479948 0.0509353 -0.0465521 
0.049051 0.0584418 -0.0497219 0.0505643 0.0671146 -0.0526217 0.0525946 0.0771058 -0.0552164 
0.0496536 0.0159835 -0.0224998 0.0498653 0.0175591 -0.0246959 0.0500486 0.0196623 -0.0270625 
0.0502616 0.0220325 -0.0294975 0.050542 0.025008 -0.0320877 0.0509304 0.0283537 -0.03473 
0.0515224 0.0323963 -0.0374706 0.0523538 0.036959 -0.0401994 0.0535634 0.0423431 -0.0429095 
0.0552046 0.0484796 -0.0454541 0.0574212 0.0556192 -0.047778 0.0603024 0.0638816 -0.0496233 
0.0639346 0.0734132 -0.0509274 0.0510772 0.0146 -0.0247019 0.0516228 0.0160691 -0.0267111 
0.0521897 0.0180354 -0.0288649 0.0528101 0.0202478 -0.031071 0.0535519 0.0230184 -0.0333955 
0.0544378 0.0261201 -0.035743 0.055595 0.0298453 -0.0381338 0.0570519 0.0340222 -0.0404599 
0.0589821 0.0389122 -0.042684 0.0614483 0.0444408 -0.044646 0.0646293 0.0508206 -0.0462587 
0.0686526 0.0581385 -0.0472124 0.0736281 0.0665167 -0.047421 0.0524766 0.013163 -0.0268738 
0.0533516 0.0145225 -0.0286981 0.0542958 0.0163492 -0.0306425 0.0553159 0.018401 -0.0326234 
0.0565082 0.0209632 -0.0346876 0.0578779 0.0238164 -0.0367467 0.0595819 0.0272173 -0.0387964 
0.0616415 0.0309983 -0.0407308 0.0642629 0.0353797 -0.042483 0.0675176 0.0402798 -0.0438807 
0.0716169 0.0458715 -0.0448059 0.0767243 0.0522056 -0.0448998 0.0829712 0.0593789 -0.0440542 
0.0536631 0.011254 -0.0287797 0.0548284 0.0124773 -0.0304382 0.0560948 0.0141413 -0.0322008 
0.0574468 0.0160073 -0.0339904 0.0589927 0.0183313 -0.0358411 0.0607266 0.0208952 -0.0376691 
0.0628147 0.023911 -0.0394543 0.0652769 0.0272092 -0.0410923 0.0683298 0.0309532 -0.0424975 
0.0720514 0.035044 -0.0434916 0.0766646 0.0395974 -0.0439375 0.0823448 0.0446025 -0.0434526 
0.0892311 0.0501182 -0.0419157 0.0548087 0.00926389 -0.0306265 0.0562601 0.0103486 -0.0321224 
0.0578416 0.0118513 -0.0337083 0.0595154 0.013534 -0.0353126 0.0613985 0.0156249 -0.0369586 
0.0634752 0.0179048 -0.038566 0.0659162 0.0205408 -0.0401009 0.0687416 0.0233595 -0.0414599 
0.0721742 0.0264669 -0.0425411 0.076298 0.0297462 -0.0431611 0.0813437 0.0332548 -0.0431662 
0.0874947 0.0369211 -0.0421551 0.0948952 0.0407656 -0.0399951 0.0557089 0.00678698 -0.0321181 
0.057421 0.00771934 -0.0334708 0.0592745 0.00906876 -0.0349104 0.0612102 0.0105833 -0.0363665 
0.0633324 0.0124719 -0.0378599 0.0656228 0.0144989 -0.0393103 0.0682299 0.0167863 -0.0406795 
0.0711831 0.0191467 -0.0418647 0.0746831 0.0216224 -0.0427591 0.0788215 0.0240762 -0.0431826 
0.0838113 0.0265007 -0.0429779 0.0898214 0.0287694 -0.0417554 0.096985 0.030862 -0.0393823 
0.0565517 0.00418458 -0.0335058 0.0585277 0.00496351 -0.0347186 0.0606532 0.00617 -0.0360183 
0.0628463 0.00753098 -0.0373343 0.0651927 0.00924218 -0.0386872 0.0676737 0.0110435 -0.0399949 
0.070408 0.0130144 -0.0412175 0.0734388 0.0149489 -0.0422515 0.076938 0.0168258 -0.0429879 
0.0810087 0.0184875 -0.0432503 0.0858414 0.0198621 -0.0428806 0.0915918 0.0207749 -0.0415049 
0.0983797 0.0211656 -0.038992 0.0571396 0.00102439 -0.0344315 0.0593931 0.00164529 -0.0355189 
0.0617907 0.00275451 -0.0367072 0.064221 0.00402731 -0.0379193 0.0667257 0.00567093 -0.0391851 
0.0692943 0.00736794 -0.0404143 0.0719832 0.00916549 -0.0415746 0.0748685 0.0108181 -0.0425587 
0.0780638 0.012242 -0.0432645 0.081701 0.0132601 -0.0435237 0.0859272 0.0137372 -0.0431875 
0.09089 0.0134793 -0.0419172 0.0966852 0.0123905 -0.0395907 0.057653 -0.00233867 -0.0351809 
0.0602095 -0.00187842 -0.0361433 0.0629044 -0.000841364 -0.0372269 0.0655899 0.00037962 -0.0383446 
0.0682539 0.00201751 -0.0395396 0.0708973 0.00367815 -0.0407094 0.0735018 0.00538159 -0.041832 
0.0761868 0.00683125 -0.0427934 0.078999 0.0078802 -0.0435003 0.0821116 0.00833189 -0.0437918 
0.0856245 0.00798722 -0.0435294 0.0896885 0.00664397 -0.0424105 0.0943754 0.00417188 -0.0403232 
0.0579091 -0.00640261 -0.0353214 0.0608571 -0.00611204 -0.03616 0.0639364 -0.00506038 -0.0371616 
0.0669385 -0.00376559 -0.038218 0.0697654 -0.0019197 -0.0393983 0.0724391 -6.08506e-05 -0.040575 
0.0748242 0.00182241 -0.0417449 0.0771203 0.00334135 -0.0427782 0.0792757 0.00428505 -0.0435958 
0.0815491 0.00443677 -0.0440417 0.0839797 0.00353252 -0.0439919 0.0867615 0.00139886 -0.0431838 
0.0899404 -0.00212458 -0.0415183 0.0420705 0.0156129 -0.0140573 0.0409675 0.0175562 -0.0166964 
0.0396261 0.0201144 -0.0196233 0.0382101 0.0229908 -0.022698 0.0366252 0.0265885 -0.0261076 
0.0349997 0.0306378 -0.0297116 0.0332978 0.0355374 -0.0336816 0.0316149 0.0410772 -0.0378871 
0.0299616 0.047628 -0.0424645 0.0284019 0.0550885 -0.0473015 0.0269668 0.063762 -0.0524847 
0.0256718 0.0737314 -0.0579254 0.0245349 0.085166 -0.063657 0.0439466 0.0152888 -0.016689 
0.0432594 0.0172036 -0.0191436 0.0424046 0.0197252 -0.0218479 0.0415131 0.0225623 -0.0246753 
0.0405382 0.0261145 -0.0277816 0.0395795 0.0301178 -0.0310395 0.0386512 0.0349704 -0.0345827 
0.0378276 0.0404724 -0.0382889 0.0371695 0.0469996 -0.0422529 0.0367347 0.0544744 -0.0463572 
0.0365979 0.0632128 -0.0506487 0.0367942 0.0733583 -0.0550019 0.0373671 0.0850944 -0.0594248 
0.0457309 0.0145051 -0.0191925 0.0454373 0.0163465 -0.0214675 0.0450438 0.0187703 -0.0239599 
0.04465 0.021495 -0.0265545 0.0442554 0.0249019 -0.0293807 0.0439344 0.0287371 -0.0323211 
0.0437521 0.0333783 -0.035476 0.0437692 0.038636 -0.0387273 0.0441011 0.0448669 -0.0421308 
0.0448165 0.0520051 -0.045555 0.0460433 0.060353 -0.0490067 0.0478751 0.0700721 -0.0523 
0.0503908 0.0813412 -0.0554142 0.0475041 0.0136928 -0.0216814 0.0476016 0.0154583 -0.0237776 
0.047666 0.017781 -0.0260592 0.0477659 0.0203895 -0.0284226 0.0479466 0.0236461 -0.030971 
0.0482575 0.0273066 -0.0335964 0.0488136 0.0317277 -0.0363669 0.0496625 0.0367295 -0.0391677 
0.0509738 0.0426483 -0.0420164 0.0528271 0.0494286 -0.0447673 0.055403 0.0573575 -0.0473877 
0.0588535 0.0666108 -0.0496313 0.0632928 0.0773612 -0.0514488 0.0491074 0.012442 -0.0239477 
0.0495564 0.0140921 -0.0258758 0.0500271 0.0162642 -0.0279652 0.0505613 0.0186983 -0.0301205 
0.0512391 0.0217265 -0.0324253 0.0520909 0.0251145 -0.034778 0.0532701 0.02918 -0.0372207 
0.0548169 0.0337489 -0.0396396 0.0569443 0.0391129 -0.0420211 0.0597465 0.045209 -0.0442038 
0.0634486 0.0522814 -0.0461217 0.0682605 0.0604644 -0.0474703 0.0743272 0.0699028 -0.0481753 
0.0506845 0.0111438 -0.0261773 0.0514799 0.0126751 -0.0279391 0.0523498 0.0146937 -0.029839 
0.0533093 0.0169502 -0.0317898 0.0544719 0.019746 -0.033856 0.0558492 0.0228562 -0.035942 
0.0576307 0.0265581 -0.0380652 0.0598498 0.030683 -0.0401126 0.0627599 0.0354759 -0.0420401 
0.0664693 0.0408649 -0.0436721 0.0712444 0.047049 -0.04491 0.0773495 0.0541172 -0.0453944 
0.0849579 0.0621849 -0.0450269 0.0520314 0.00942761 -0.0280845 0.053128 0.010812 -0.0296949 
0.0543337 0.012651 -0.0314299 0.055641 0.014701 -0.0332067 0.0571788 0.0172293 -0.0350783 
0.0589467 0.0200147 -0.0369515 0.0611477 0.0232838 -0.038828 0.0638134 0.0268666 -0.0405941 
0.0672126 0.0309446 -0.0421862 0.0714614 0.0354246 -0.04342 0.076843 0.0404405 -0.0441762 
0.0836397 0.046003 -0.0440668 0.092036 0.0521833 -0.0429788 0.0533345 0.00764114 -0.0299194 
0.0547268 0.00887639 -0.0313811 0.0562595 0.0105371 -0.0329559 0.0579028 0.0123829 -0.0345646 
0.0597971 0.0146482 -0.0362501 0.0619312 0.0171132 -0.0379209 0.0645169 0.019954 -0.0395643 
0.0675851 0.0229974 -0.0410663 0.0714152 0.0263606 -0.0423449 0.0761301 0.0299285 -0.0432091 
0.0820249 0.0337692 -0.0435206 0.0893939 0.037816 -0.0428684 0.0984294 0.0420956 -0.0411268 
0.0543748 0.00543294 -0.0313207 0.0560299 0.00650613 -0.0326497 0.0578366 0.00799555 -0.0340926 
0.0597448 0.00965041 -0.0355684 0.061883 0.0116803 -0.0371187 0.0642374 0.0138521 -0.0386492 
0.0669989 0.016291 -0.0401423 0.070206 0.0188113 -0.041482 0.0741168 0.0214601 -0.0425797 
0.078858 0.024098 -0.0432451 0.0847064 0.0267212 -0.0433342 0.0919319 0.0291922 -0.0424455 
0.100714 0.0314909 -0.0404514 0.055355 0.00311894 -0.032594 0.0572739 0.00403013 -0.0337927 
0.0593519 0.00535879 -0.0351101 0.0615173 0.00683732 -0.0364614 0.0638812 0.00865555 -0.0378894 
0.0664291 0.0105606 -0.0392948 0.0693231 0.0126289 -0.0406574 0.0726137 0.0146583 -0.0418584 
0.0765304 0.0166261 -0.0428041 0.0812068 0.0183694 -0.0433062 0.0868961 0.0198134 -0.0432169 
0.0938433 0.0207577 -0.0421488 0.102212 0.0211373 -0.0399744 0.0560686 0.000334755 -0.033298 
0.0582552 0.00108418 -0.0343778 0.0605921 0.00229872 -0.0355982 0.0629815 0.00366579 -0.0368622 
0.0654901 0.00537863 -0.0382248 0.0681118 0.00713448 -0.0395728 0.0709464 0.00897128 -0.0408935 
0.0740741 0.0106522 -0.0420598 0.0776643 0.0120871 -0.0429823 0.0818712 0.0130934 -0.0434785 
0.0869006 0.0135284 -0.0434065 0.0929702 0.013165 -0.0424133 0.100216 0.0118991 -0.0403789 
0.0567086 -0.0026135 -0.0337824 0.0591841 -0.00202499 -0.0347424 0.0617999 -0.000898712 -0.0358733 
0.0644259 0.000392946 -0.0370611 0.067075 0.00205946 -0.0383778 0.0697529 0.00373106 -0.0396914 
0.0724851 0.00541222 -0.040999 0.0753911 0.00682143 -0.0421621 0.0785716 0.00780123 -0.043097 
0.0822137 0.00815036 -0.0436258 0.086471 0.00765858 -0.0436132 0.0915459 0.00608481 -0.0427422 
0.097545 0.00328791 -0.0409007 0.0570945 -0.00612856 -0.0335081 0.0599325 -0.00569805 -0.0343455 
0.0628959 -0.00457065 -0.0354124 0.0658019 -0.00322992 -0.0365625 0.0685775 -0.00140564 -0.037901 
0.0712506 0.000405981 -0.0392591 0.073731 0.00219377 -0.0406538 0.0762127 0.00359606 -0.0419226 
0.0786965 0.00438969 -0.0429924 0.0814437 0.00435718 -0.0436863 0.0845421 0.00322318 -0.0438789 
0.088218 0.000775592 -0.0432933 0.0925465 -0.00315691 -0.0418279 0.0395895 0.0129089 -0.0126901 
0.0382903 0.0150176 -0.0151207 0.0367129 0.0177795 -0.0178485 0.0350444 0.0208845 -0.0207355 
0.0331696 0.0247673 -0.0239837 0.0312379 0.0291452 -0.0274515 0.029199 0.0344551 -0.0313329 
0.027166 0.0404788 -0.0354988 0.0251423 0.0476295 -0.0401137 0.0232049 0.0558108 -0.0450776 
0.0213827 0.065366 -0.0505067 0.0196949 0.0764142 -0.0563513 0.018159 0.0891502 -0.0626659 
0.041628 0.0126366 -0.0155171 0.0407703 0.0147162 -0.0177943 0.0397138 0.017438 -0.0203325 
0.0386097 0.0204982 -0.0230065 0.0373979 0.0243253 -0.0259883 0.0361955 0.0286441 -0.0291486 
0.035011 0.0338888 -0.0326449 0.0339341 0.0398537 -0.0363554 0.033027 0.0469557 -0.0404044 
0.0323625 0.0551279 -0.0446864 0.0320214 0.0647271 -0.0492793 0.0320538 0.0759488 -0.0540987 
0.0325083 0.0890047 -0.059174 0.0435719 0.0119596 -0.0181895 0.0431291 0.0139627 -0.0203144 
0.0425623 0.0165796 -0.022671 0.0419895 0.0195178 -0.0251442 0.041403 0.0231844 -0.0278818 
0.0408929 0.0273162 -0.0307628 0.0405267 0.0323238 -0.0339137 0.0403803 0.0380138 -0.0372156 
0.0405811 0.0447814 -0.0407557 0.0412188 0.0525743 -0.0444143 0.0424391 0.0617343 -0.0482308 
0.0443761 0.0724813 -0.0520604 0.047123 0.0850224 -0.0559051 0.0455041 0.011258 -0.0208447 
0.0454735 0.0131819 -0.0228178 0.0453926 0.0156903 -0.0249937 0.0453465 0.0185024 -0.0272673 
0.0453796 0.0220032 -0.0297626 0.0455552 0.0259412 -0.0323667 0.0459988 0.0307023 -0.0351756 
0.0467733 0.0361051 -0.0380727 0.0480701 0.0425214 -0.0411092 0.0499964 0.049912 -0.0441504 
0.0527621 0.0586018 -0.0471981 0.056585 0.0688306 -0.050047 0.0616032 0.080799 -0.0526714 
0.0472589 0.010179 -0.0232378 0.0475957 0.0119818 -0.0250647 0.047942 0.0143287 -0.0270736 
0.0483552 0.0169526 -0.0291661 0.04892 0.0202041 -0.0314484 0.049679 0.0238438 -0.0338124 
0.0508038 0.0282143 -0.03633 0.05235 0.0331412 -0.0388842 0.0545616 0.038947 -0.041496 
0.0575674 0.0455837 -0.0440145 0.061632 0.0533283 -0.0464086 0.0670568 0.0623707 -0.0484135 
0.0740189 0.0728804 -0.0499786 0.0489863 0.00906052 -0.0255879 0.0496845 0.0107387 -0.0272699 
0.05045 0.012921 -0.0291139 0.0513125 0.0153528 -0.0310283 0.0523951 0.0183505 -0.0331019 
0.0537206 0.0216858 -0.0352311 0.0555036 0.0256568 -0.0374647 0.0577933 0.0300956 -0.0396848 
0.0608828 0.035273 -0.0418838 0.0649214 0.0411305 -0.0438947 0.0702252 0.0478949 -0.045655 
0.0771731 0.0557016 -0.046843 0.0859794 0.0646866 -0.0473841 0.0504724 0.00759398 -0.0275608 
0.0514803 0.00911778 -0.0291078 0.0525929 0.0111062 -0.0308067 0.0538176 0.0133135 -0.0325681 
0.0552962 0.0160167 -0.0344709 0.057039 0.0189943 -0.036412 0.0592791 0.0224883 -0.0384252 
0.0620631 0.0263303 -0.0403904 0.0657058 0.0307218 -0.0422799 0.0703661 0.0355786 -0.0439167 
0.0763831 0.0410557 -0.0452167 0.0841623 0.0471915 -0.0458264 0.0939335 0.0540718 -0.0456558 
0.0519127 0.00607132 -0.0294495 0.0532234 0.00743871 -0.0308637 0.0546726 0.00923408 -0.0324216 
0.0562456 0.0112184 -0.0340352 0.0580992 0.0136308 -0.035775 0.0602322 0.0162541 -0.0375374 
0.0628912 0.0192743 -0.0393426 0.0661212 0.022521 -0.0410681 0.070253 0.0261256 -0.0426677 
0.0754536 0.0299776 -0.0439557 0.082079 0.0341594 -0.0448281 0.0905527 0.0386137 -0.044905 
0.101116 0.043376 -0.0440827 0.0530784 0.00421186 -0.0308335 0.0546503 0.00541047 -0.0321271 
0.0563725 0.00701773 -0.0335689 0.058211 0.00878911 -0.0350662 0.0603131 0.0109325 -0.0366894 
0.0626742 0.0132223 -0.0383295 0.0655228 0.0157877 -0.0400014 0.0689095 0.0184483 -0.0415785 
0.0731459 0.0212592 -0.043006 0.0783976 0.0240822 -0.0440965 0.0850033 0.0269211 -0.0447377 
0.09335 0.0296306 -0.044555 0.103665 0.0321939 -0.0434408 0.0541826 0.00227224 -0.0320699 
0.0560139 0.00330322 -0.0332451 0.0580029 0.00473265 -0.0345769 0.060096 0.00630501 -0.0359662 
0.0624247 0.00820135 -0.0374855 0.0649833 0.0101821 -0.0390182 0.0679743 0.0123218 -0.040576 
0.0714574 0.0144265 -0.0420269 0.0757176 0.0164762 -0.0433092 0.0809215 0.0183062 -0.0442348 
0.087384 0.0198432 -0.0446848 0.0954532 0.0208636 -0.0442941 0.105339 0.0213002 -0.0429533 
0.0550133 -2.36502e-05 -0.0326505 0.0570956 0.000844784 -0.0337167 0.0593246 0.0021421 -0.0349664 
0.0616237 0.00357716 -0.0362841 0.0640819 0.00532448 -0.0377556 0.0667016 0.00710493 -0.0392471 
0.0696251 0.00894772 -0.0407761 0.072937 0.0106314 -0.0421996 0.0768621 0.0120639 -0.0434567 
0.081578 0.0130614 -0.0443619 0.0873483 0.0134787 -0.0447979 0.094471 0.0130575 -0.0444296 
0.103123 0.0116885 -0.0431518 0.0557731 -0.00243429 -0.032983 0.0581219 -0.00172375 -0.0339392 
0.0606037 -0.000532676 -0.0351149 0.0631147 0.000799614 -0.0363729 0.0656921 0.00245199 -0.0378178 
0.0683498 0.00409155 -0.0392924 0.0711584 0.00570701 -0.0408228 0.0742368 0.00704114 -0.0422514 
0.0777408 0.00793106 -0.0435189 0.0818698 0.00817555 -0.0444415 0.086832 0.00755946 -0.0449041 
0.0928865 0.00580396 -0.0446025 0.100176 0.00276043 -0.0434369 0.0562877 -0.00524132 -0.0324585 
0.0589566 -0.00467265 -0.0333012 0.0617358 -0.00349839 -0.0344306 0.0644788 -0.00214965 -0.0356706 
0.06714 -0.000405423 -0.0371614 0.0697558 0.0012986 -0.0387028 0.0722859 0.00292693 -0.0403397 
0.0749152 0.00415845 -0.0418853 0.077701 0.00476342 -0.0432867 0.0809018 0.00452996 -0.0443571 
0.0846559 0.00317859 -0.0449862 0.0892216 0.000459293 -0.044905 0.0947047 -0.00380637 -0.0440209 
0.0372494 0.0100618 -0.0112465 0.0357535 0.0123149 -0.0134491 0.0339346 0.0152575 -0.0159541 
0.0320053 0.0185669 -0.0186278 0.0298259 0.0227073 -0.0216837 0.0275683 0.0273845 -0.0249816 
0.0251635 0.0330719 -0.0287349 0.022743 0.0395438 -0.0328173 0.0202976 0.0472542 -0.0374194 
0.0179157 0.0561114 -0.0424545 0.0156188 0.0664977 -0.048067 0.0134219 0.0785649 -0.0542478 
0.0113384 0.0925322 -0.0610711 0.0394294 0.00984773 -0.0142964 0.0383989 0.0120724 -0.0163796 
0.0371332 0.0149721 -0.0187322 0.0358061 0.0182313 -0.0212319 0.0343398 0.0223058 -0.0240654 
0.032871 0.0269103 -0.0271026 0.0313977 0.0325126 -0.0305231 0.0300254 0.0389023 -0.0342072 
0.0288127 0.0465352 -0.0383075 0.0278446 0.0553544 -0.0427324 0.0272024 0.0657555 -0.0475902 
0.0269417 0.077983 -0.0528409 0.0271124 0.092275 -0.0585358 0.0415146 0.00928791 -0.0171655 
0.0409189 0.0114348 -0.0191256 0.0401689 0.014224 -0.0213299 0.0394038 0.0173533 -0.0236648 
0.0386044 0.0212537 -0.0262954 0.0378786 0.0256539 -0.0290983 0.0372913 0.0309949 -0.0322256 
0.036934 0.0370807 -0.0355588 0.03694 0.0443426 -0.0392171 0.0374173 0.0527415 -0.0430947 
0.0385232 0.0626565 -0.0472649 0.0404217 0.0743633 -0.0516309 0.0432164 0.0880955 -0.0562182 
0.0435881 0.00870776 -0.0200149 0.0434238 0.010774 -0.0218519 0.0431852 0.013449 -0.0239086 
0.0429772 0.0164441 -0.0260793 0.0428385 0.0201648 -0.0285084 0.0428483 0.0243535 -0.0310791 
0.0431377 0.0294233 -0.0339159 0.0437848 0.0351924 -0.0369016 0.0449965 0.0420655 -0.0401223 
0.0469045 0.0500199 -0.043458 0.0497411 0.0594158 -0.046947 0.0537788 0.0705549 -0.0504356 
0.0591745 0.0836643 -0.0539239 0.0454803 0.00781593 -0.0225635 0.0456974 0.00975717 -0.0242772 
0.0459048 0.0122621 -0.0261939 0.0461786 0.0150572 -0.0282128 0.0466031 0.0185104 -0.0304635 
0.0472359 0.0223781 -0.0328316 0.0482607 0.0270259 -0.0354207 0.0497489 0.0322806 -0.0381112 
0.051969 0.0384933 -0.040962 0.0550807 0.0456311 -0.0438362 0.0593813 0.0540026 -0.0467415 
0.0652517 0.0638521 -0.0494663 0.0728968 0.0753722 -0.0519868 0.0473443 0.00689302 -0.0250632 
0.0479361 0.00870569 -0.0266541 0.0485803 0.0110368 -0.0284324 0.0493251 0.0136278 -0.0303017 
0.0502977 0.0168083 -0.0323774 0.051535 0.0203481 -0.0345473 0.0532704 0.0245644 -0.0368944 
0.0555692 0.0292912 -0.0392971 0.0587576 0.0348242 -0.0417875 0.0630219 0.0411185 -0.0442126 
0.0687208 0.0484278 -0.0465505 0.076336 0.0569337 -0.0485336 0.0861175 0.0667922 -0.0501156 
0.0489592 0.00569659 -0.0271324 0.0498677 0.0073491 -0.0286051 0.0508688 0.00947382 -0.0302589 
0.0519883 0.0118242 -0.0319975 0.0533761 0.014686 -0.0339284 0.0550556 0.0178385 -0.0359378 
0.057284 0.0215381 -0.038095 0.0601236 0.0256193 -0.0402745 0.063928 0.0303031 -0.042489 
0.0688954 0.0355151 -0.0445738 0.0754135 0.0414312 -0.0464857 0.0840001 0.0481188 -0.0479234 
0.0949248 0.0556785 -0.0488251 0.0505268 0.00445877 -0.0291062 0.0517436 0.00594903 -0.0304623 
0.0530892 0.00786775 -0.031995 0.0545678 0.00997843 -0.0336074 0.0563477 0.0125242 -0.0354002 
0.0584399 0.0152917 -0.0372573 0.0611202 0.0184764 -0.0392352 0.0644485 0.0219122 -0.0412043 
0.0687998 0.0257445 -0.0431592 0.0743815 0.0298689 -0.0449248 0.0816039 0.0343828 -0.0464379 
0.0910088 0.039241 -0.0473682 0.102881 0.0444882 -0.0476398 0.0518102 0.00297258 -0.0305078 
0.0532854 0.00428811 -0.0317561 0.0549019 0.00600286 -0.0331888 0.0566458 0.00787998 -0.0347018 
0.0586784 0.0101251 -0.036397 0.0610069 0.0125214 -0.0381503 0.063892 0.0152024 -0.040013 
0.0673968 0.0179941 -0.041849 0.0718799 0.0209606 -0.0436427 0.0775432 0.0239665 -0.0452149 
0.08478 0.0270248 -0.0464917 0.0940857 0.0299862 -0.0471428 0.10573 0.032838 -0.0470866 
0.0530306 0.00143185 -0.0317445 0.0547596 0.00257469 -0.0328867 0.0566377 0.00409535 -0.0342254 
0.0586327 0.00575186 -0.035647 0.060893 0.00771631 -0.0372567 0.0634235 0.00976373 -0.0389204 
0.0664626 0.0119673 -0.0406856 0.0700794 0.0141431 -0.0424086 0.0746085 0.016275 -0.0440651 
0.0802471 0.0181985 -0.0454723 0.0873653 0.0198442 -0.0465469 0.096407 0.02097 -0.046963 
0.107623 0.021508 -0.0466345 0.0539714 -0.000351269 -0.0322476 0.0559338 0.000627953 -0.0332923 
0.0580322 0.0019984 -0.0345637 0.0602155 0.00349193 -0.035929 0.0625912 0.00526445 -0.037507 
0.065172 0.00706167 -0.0391435 0.068139 0.00890538 -0.0408903 0.0715816 0.0105907 -0.0425901 
0.0757748 0.012026 -0.0442159 0.0809172 0.013028 -0.0455839 0.087325 0.0134523 -0.0466084 
0.0953703 0.0130141 -0.0469859 0.105267 0.0116009 -0.046632 0.0548435 -0.00220201 -0.0324801 
0.0570489 -0.00137833 -0.0334264 0.0593737 -0.000132498 -0.0346393 0.0617445 0.00123078 -0.0359608 
0.0642194 0.00286026 -0.0375288 0.0668222 0.00446102 -0.039163 0.0696661 0.00600771 -0.0409218 
0.0728687 0.00726852 -0.0426304 0.0766377 0.00807794 -0.0442598 0.0811822 0.008237 -0.0456244 
0.0867607 0.00752893 -0.0466359 0.0936839 0.00564229 -0.0470148 0.102127 0.00242336 -0.0466787 
0.0554782 -0.00428634 -0.0317772 0.0579601 -0.00359033 -0.0326228 0.0605323 -0.00238064 -0.033807 
0.0630879 -0.00103454 -0.0351286 0.065606 0.000620769 -0.0367615 0.068133 0.00221069 -0.0384788 
0.070677 0.00367752 -0.0403548 0.0734131 0.00474151 -0.0421827 0.0764523 0.00516941 -0.0439348 
0.0800484 0.00475711 -0.045419 0.0843867 0.00322452 -0.0465458 0.0897535 0.000288647 -0.0470644 
0.0962829 -0.00423355 -0.0468954 0.0352287 0.00689033 -0.00962982 0.0335348 0.00924058 -0.0115604 
0.031462 0.0123116 -0.0137889 0.029253 0.0157699 -0.0161906 0.0267355 0.020106 -0.0189849 
0.0241075 0.0250161 -0.0220362 0.0212717 0.0310065 -0.0255716 0.0183786 0.0378456 -0.0294713 
0.0153953 0.0460248 -0.0339461 0.0124175 0.0554566 -0.0389266 0.009447 0.0665586 -0.044581 
0.00647772 0.0795092 -0.050944 0.00350979 0.0945494 -0.058108 0.0375025 0.00674934 -0.0129653 
0.0362946 0.00907428 -0.0148166 0.0348026 0.0121009 -0.0169394 0.0332284 0.0155049 -0.0192179 
0.0314678 0.0197644 -0.0218489 0.0296811 0.0245868 -0.0247049 0.0278451 0.0304688 -0.0279845 
0.0260824 0.0371969 -0.0315726 0.0244356 0.0452608 -0.0356478 0.0229962 0.054613 -0.0401365 
0.0218334 0.0656829 -0.0451764 0.0209873 0.0787564 -0.0507797 0.0204991 0.0940947 -0.0570197 
0.0396883 0.00633041 -0.0160941 0.0389306 0.00858023 -0.0178557 0.0379749 0.0114946 -0.0198706 
0.0369874 0.0147645 -0.0220285 0.0359279 0.0188399 -0.0245104 0.0349262 0.0234443 -0.0271927 
0.0340333 0.0290442 -0.0302521 0.0333574 0.0354428 -0.0335732 0.0330242 0.0431028 -0.0373078 
0.0331537 0.0519974 -0.0413699 0.0339004 0.0625384 -0.0458687 0.0354354 0.0750505 -0.0507707 
0.0378616 0.0897907 -0.0561286 0.0418627 0.0058961 -0.0192008 0.0415515 0.00806779 -0.0208723 
0.0411273 0.0108662 -0.0227792 0.0407211 0.0139975 -0.0248167 0.0403558 0.017883 -0.0271505 
0.0401312 0.022262 -0.0296602 0.0401715 0.0275698 -0.0325013 0.040571 0.033626 -0.0355579 
0.0415377 0.040864 -0.038955 0.0432206 0.0492763 -0.0425944 0.0458584 0.0592545 -0.0465567 
0.0497538 0.071156 -0.0507626 0.0550709 0.0852317 -0.055244 0.0438603 0.00522605 -0.02197 
0.0439406 0.00727346 -0.023543 0.0439759 0.00989779 -0.0253413 0.0440686 0.0128225 -0.027262 
0.0442915 0.0164281 -0.0294606 0.044722 0.02047 -0.0318166 0.0455434 0.025333 -0.0344691 
0.0468438 0.0308465 -0.0372986 0.0489007 0.037387 -0.0404076 0.0518971 0.0449369 -0.0436826 
0.0561464 0.0538328 -0.0471788 0.0620839 0.0643701 -0.0507672 0.06993 0.076763 -0.0544596 
0.0458297 0.00453458 -0.0246846 0.0462942 0.00645383 -0.0261591 0.0467791 0.0088999 -0.0278493 
0.0473589 0.0116135 -0.0296544 0.0481539 0.0149334 -0.0317199 0.0492199 0.0186308 -0.033925 
0.0507963 0.0230386 -0.0363929 0.0529653 0.0279952 -0.0390001 0.05607 0.0338181 -0.0418275 
0.0603258 0.0404772 -0.0447463 0.0661164 0.0482513 -0.0477871 0.0740012 0.0573672 -0.0507725 
0.0842533 0.0679999 -0.0536956 0.0475502 0.00365467 -0.0269198 0.0483348 0.00541153 -0.0282936 
0.0491823 0.00764291 -0.0298819 0.0501455 0.0101045 -0.0315814 0.0513708 0.0130878 -0.0335329 
0.0529003 0.0163758 -0.0356116 0.0550023 0.0202374 -0.0379295 0.0577552 0.0245125 -0.0403576 
0.061536 0.0294404 -0.0429595 0.0665742 0.0349584 -0.0455942 0.0732888 0.0412633 -0.0482728 
0.0822856 0.0484541 -0.0507853 0.093862 0.0566462 -0.0531103 0.0492225 0.00274941 -0.0290498 
0.0503176 0.00434152 -0.0303239 0.0515139 0.00635781 -0.0318129 0.0528433 0.00856748 -0.0334102 
0.0544743 0.0112155 -0.0352529 0.056436 0.0140951 -0.0372113 0.0590202 0.0174108 -0.0393871 
0.0623024 0.021003 -0.0416452 0.0666867 0.0250321 -0.0440331 0.0724131 0.0294026 -0.0463982 
0.0799292 0.0342282 -0.0487329 0.0898724 0.0394817 -0.0507986 0.102559 0.0452189 -0.05256 
0.0506058 0.00169205 -0.0305487 0.0519537 0.00310522 -0.0317285 0.0534165 0.00490401 -0.0331342 
0.0550093 0.00686243 -0.0346499 0.0568969 0.00918268 -0.0364149 0.0591034 0.0116595 -0.0382895 
0.0619103 0.0144312 -0.0403703 0.0653936 0.017333 -0.0425139 0.0699451 0.0204405 -0.0447565 
0.0757953 0.0236246 -0.0469386 0.0833774 0.0269108 -0.04904 0.0932743 0.0301541 -0.0508147 
0.105788 0.033349 -0.0522201 0.0519251 0.000605763 -0.0318696 0.0535186 0.00184248 -0.0329573 
0.0552355 0.00343276 -0.0342854 0.0570747 0.00515149 -0.0357267 0.0591908 0.00716137 -0.0374247 
0.0616053 0.00925484 -0.0392277 0.0645814 0.0115056 -0.0412282 0.0681986 0.0137424 -0.0432735 
0.0728278 0.0159571 -0.0453894 0.0786908 0.0179898 -0.0474098 0.0861988 0.01978 -0.0493028 
0.0958737 0.0210774 -0.0508184 0.107998 0.0218177 -0.0519074 0.0529598 -0.000609106 -0.0323995 
0.0547666 0.000462269 -0.0334044 0.0566834 0.00188399 -0.0346803 0.058693 0.00341437 -0.0360795 
0.060913 0.00519107 -0.037758 0.0633717 0.00698734 -0.0395433 0.0662795 0.00882047 -0.0415294 
0.069731 0.0105049 -0.0435487 0.074041 0.0119545 -0.0456204 0.079423 0.0129916 -0.0475735 
0.0862342 0.0134786 -0.0493687 0.094906 0.0131156 -0.0507665 0.105681 0.0117916 -0.0517152 
0.0539272 -0.00184946 -0.0326492 0.0559513 -0.00093276 -0.0335718 0.0580674 0.000345072 -0.0348048 
0.0602405 0.00171748 -0.0361746 0.0625428 0.00330425 -0.0378543 0.0650127 0.00485086 -0.039645 
0.0677981 0.00632184 -0.0416444 0.0710162 0.00751332 -0.0436662 0.0749174 0.00826346 -0.0457235 
0.0797155 0.00838063 -0.0476394 0.0857096 0.00765384 -0.0493668 0.0932501 0.00575074 -0.0506784 
0.102539 0.00251788 -0.0515201 0.0546625 -0.00317784 -0.0319307 0.0569172 -0.00237896 -0.0327733 
0.0592307 -0.00115979 -0.0339954 0.0615431 0.00015953 -0.0353797 0.0638528 0.00170584 -0.037132 
0.0662204 0.00316694 -0.0390078 0.0686967 0.00446765 -0.0411162 0.0714469 0.00537145 -0.0432391 
0.0746298 0.00564855 -0.045385 0.0784889 0.00510751 -0.0473671 0.0832497 0.00347562 -0.0491307 
0.0892165 0.000448148 -0.0504652 0.0965466 -0.00415694 -0.0513144 0.0334127 0.0034958 -0.00795078 
0.0315281 0.00591307 -0.00958633 0.0292045 0.00907648 -0.0115093 0.0267169 0.0126443 -0.0136061 
0.0238576 0.0171288 -0.016097 0.0208521 0.0222189 -0.0188536 0.0175711 0.0284488 -0.0221102 
0.0141846 0.035583 -0.0257547 0.0106313 0.0441449 -0.0300119 0.00701213 0.054051 -0.0348277 
0.00330518 0.0657492 -0.0403884 -0.000523248 0.0794378 -0.0467645 -0.00448898 0.0953763 -0.0540624 
0.0357502 0.00343523 -0.0115994 0.0343682 0.00583275 -0.0131992 0.0326481 0.00895263 -0.015068 
0.0308221 0.012464 -0.0170979 0.0287563 0.0168629 -0.0194931 0.0266359 0.0218516 -0.0221297 
0.0244127 0.0279505 -0.0252209 0.022226 0.0349442 -0.0286571 0.0200971 0.0433508 -0.0326379 
0.0181214 0.0531306 -0.0371065 0.01635 0.0647414 -0.0422254 0.0147974 0.0785006 -0.0480521 
0.013492 0.0946883 -0.054679 0.0380124 0.00316805 -0.0150161 0.0370923 0.00549649 -0.0165611 
0.0359237 0.00850602 -0.0183651 0.0347032 0.0118826 -0.0203226 0.0333651 0.0160912 -0.0226284 
0.032063 0.0208521 -0.0251592 0.0308287 0.0266525 -0.0281134 0.029787 0.0332961 -0.0313795 
0.0290491 0.041271 -0.035138 0.0287428 0.0505616 -0.0393223 0.0290117 0.0616063 -0.0440745 
0.0300189 0.0747689 -0.0494202 0.0318607 0.0903258 -0.0554368 0.0402639 0.00289071 -0.0184086 
0.0398016 0.00514694 -0.0198976 0.0391795 0.00804219 -0.021636 0.0385587 0.0112794 -0.0235208 
0.0379408 0.0152918 -0.0257373 0.0374486 0.0198176 -0.0281625 0.0371929 0.0253096 -0.0309806 
0.037284 0.03159 -0.0340778 0.0379229 0.0391154 -0.0376158 0.0392697 0.0478919 -0.041518 
0.0415602 0.0583365 -0.0459058 0.0451062 0.0708526 -0.0507729 0.0500715 0.0857103 -0.0561817 
0.04235 0.00245763 -0.0214288 0.0422858 0.0045936 -0.022844 0.0421321 0.00731448 -0.0245061 
0.042022 0.0103428 -0.026311 0.0420108 0.0140679 -0.0284391 0.0421985 0.0182463 -0.0307643 
0.0427605 0.0232779 -0.0334603 0.0438012 0.028996 -0.0364078 0.0455976 0.0357981 -0.0397523 
0.048349 0.0436803 -0.0434039 0.0523736 0.0530029 -0.047465 0.0581356 0.0641043 -0.051891 
0.0658617 0.0772167 -0.0567292 0.0444083 0.00201325 -0.0243893 0.0447343 0.00402465 -0.0257296 
0.0450385 0.00656649 -0.0273151 0.0454267 0.00938068 -0.0290399 0.0460054 0.0128122 -0.0310805 
0.0468527 0.0166353 -0.0333067 0.0482053 0.0211955 -0.0358823 0.050162 0.0263365 -0.038682 
0.0530723 0.0323945 -0.0418358 0.057172 0.0393533 -0.0452403 0.0628577 0.0475131 -0.0489791 
0.0707361 0.0571405 -0.0529701 0.0810932 0.0684268 -0.057246 0.0462228 0.00146944 -0.026824 
0.0468699 0.00331831 -0.0280799 0.0475391 0.00564011 -0.0295858 0.0483158 0.0081946 -0.0312305 
0.0493361 0.0112765 -0.0331898 0.0506635 0.0146745 -0.0353262 0.0525692 0.0186674 -0.0377961 
0.0551472 0.0231017 -0.0404665 0.0587869 0.028233 -0.0434534 0.0637398 0.0340106 -0.0466409 
0.0704439 0.04065 -0.0500959 0.0795615 0.04828 -0.0537065 0.0914074 0.0570297 -0.057493 
0.0479887 0.000916449 -0.0291443 0.0489462 0.00259987 -0.0303161 0.0499655 0.00470026 -0.0317442 
0.0511123 0.00699407 -0.033311 0.0525482 0.00972627 -0.0351923 0.0543234 0.0126986 -0.0372427 