# vtk DataFile Version 2.0
vtk output
ASCII
DATASET RECTILINEAR_GRID
DIMENSIONS 13 13 13
X_COORDINATES 13 float
-10 -9.79167 -9.58333 -9.375 -9.16667 -8.95833 -8.75 -8.54167 -8.33333 
-8.125 -7.91667 -7.70833 -7.5 
Y_COORDINATES 13 float
-7.5 -7.29167 -7.08333 -6.875 -6.66667 -6.45833 -6.25 -6.04167 -5.83333 
-5.625 -5.41667 -5.20833 -5 
Z_COORDINATES 13 float
7.5 7.70833 7.91667 8.125 8.33333 8.54167 8.75 8.95833 9.16667 
9.375 9.58333 9.79167 10 
POINT_DATA 2197
VECTORS grad float
0.172652 0.134327 0.0149869 0.167728 0.158563 0.0235943 0.162243 0.182827 0.0322044 
0.143578 0.207748 0.0408762 0.123667 0.231751 0.0492188 0.0897457 0.245428 0.0538577 
0.0552531 0.256348 0.0575575 0.016668 0.247513 0.0545265 -0.0203089 0.235541 0.0504069 
-0.049043 0.207492 0.0407081 -0.0745769 0.178246 0.0305329 -0.0876301 0.144331 0.0184993 
-0.0978656 0.11132 0.00671862 0.200192 0.13027 0.0250702 0.195717 0.157783 0.037314 
0.19055 0.185422 0.0496045 0.169125 0.216048 0.0629904 0.145869 0.24568 0.0759409 
0.102016 0.264125 0.0839936 0.0572897 0.279071 0.0906006 0.00631122 0.268939 0.0868472 
-0.0422053 0.254964 0.0814797 -0.0781029 0.221302 0.0678398 -0.109365 0.18667 0.0537153 
-0.122551 0.148251 0.0377006 -0.13202 0.111394 0.0222865 0.229053 0.122232 0.0353855 
0.225477 0.151752 0.0516865 0.221077 0.181495 0.0680992 0.197303 0.216468 0.0871383 
0.170998 0.25042 0.105636 0.116214 0.272885 0.118037 0.0601831 0.291224 0.128335 
-0.00478725 0.279986 0.123549 -0.0662406 0.264342 0.116491 -0.109667 0.226122 0.0977877 
-0.146805 0.187216 0.0786624 -0.159415 0.145635 0.05789 -0.167426 0.106194 0.0381739 
0.26122 0.104239 0.0462809 0.259669 0.132594 0.0676909 0.257158 0.161259 0.0893308 
0.232059 0.197186 0.116371 0.203442 0.23219 0.142761 0.135233 0.256802 0.161851 
0.0652186 0.276948 0.177796 -0.0177401 0.265086 0.171203 -0.0956234 0.248608 0.161347 
-0.147493 0.208466 0.134776 -0.190872 0.16807 0.108021 -0.201137 0.126682 0.0805502 
-0.205962 0.0878068 0.0548607 0.290385 0.0811542 0.0562225 0.291037 0.105776 0.0824872 
0.290609 0.130735 0.109111 0.264799 0.163614 0.14416 0.234483 0.195722 0.178482 
0.153475 0.219164 0.204624 0.0700866 0.238327 0.226517 -0.0303619 0.226825 0.217957 
-0.124146 0.210993 0.205121 -0.183775 0.172971 0.170367 -0.232773 0.135004 0.135755 
-0.240313 0.0972483 0.101693 -0.241716 0.061999 0.0701623 0.31336 0.0475668 0.0641972 
0.31658 0.0631582 0.0947916 0.318638 0.0789937 0.125896 0.29338 0.100566 0.168973 
0.262631 0.121637 0.211304 0.170113 0.137068 0.24525 0.0746092 0.149494 0.273711 
-0.0423006 0.140379 0.262858 -0.150895 0.128251 0.246661 -0.216871 0.100685 0.203076 
-0.270205 0.073228 0.160136 -0.274239 0.046199 0.119708 -0.271733 0.0208857 0.0826072 
0.326713 0.0115824 0.0696827 0.331466 0.0166408 0.102983 0.335003 0.0218033 0.136886 
0.309983 0.0294122 0.184934 0.278866 0.0368076 0.232224 0.179165 0.0418012 0.270991 
0.0761032 0.0454509 0.303514 -0.0510455 0.0394694 0.291289 -0.168869 0.0321405 0.273063 
-0.238898 0.0179067 0.22408 -0.295052 0.00369525 0.176041 -0.297091 -0.0104286 0.131682 
-0.292337 -0.0239071 0.0911276 0.323494 -0.02853 0.0708814 0.327997 -0.036592 0.104092 
0.331282 -0.0447712 0.137897 0.305958 -0.0557017 0.185651 0.274583 -0.0665257 0.232645 
0.17515 -0.076151 0.271095 0.0723814 -0.0847887 0.303366 -0.0542897 -0.0863482 0.291357 
-0.17173 -0.0869915 0.273396 -0.241862 -0.082939 0.224924 -0.298223 -0.0791965 0.177347 
-0.300874 -0.0766632 0.133255 -0.29673 -0.0750366 0.0928892 0.309983 -0.065192 0.0693798 
0.313174 -0.0844354 0.100782 0.315178 -0.103958 0.132711 0.289287 -0.130036 0.176994 
0.257787 -0.155712 0.220526 0.163186 -0.176865 0.255613 0.065515 -0.195189 0.285075 
-0.0541616 -0.193243 0.274226 -0.165367 -0.188559 0.257897 -0.233157 -0.16984 0.213476 
-0.288098 -0.151593 0.1697 -0.292932 -0.13519 0.128437 -0.291146 -0.120912 0.0904909 
0.281547 -0.0968508 0.0639628 0.281887 -0.124464 0.091066 0.281118 -0.152432 0.118541 
0.254281 -0.188739 0.154746 0.222846 -0.224384 0.190225 0.139697 -0.252583 0.217532 
0.054089 -0.276823 0.240476 -0.0491437 -0.2727 0.232156 -0.145629 -0.264656 0.219441 
-0.20753 -0.23652 0.184203 -0.258696 -0.208772 0.149071 -0.26799 -0.182539 0.114355 
-0.271095 -0.159168 0.0820606 0.249708 -0.121024 0.0573425 0.247531 -0.153476 0.0799198 
0.244344 -0.186283 0.102734 0.217443 -0.227422 0.131109 0.18693 -0.267718 0.158822 
0.115781 -0.298545 0.179074 0.0427448 -0.324979 0.196106 -0.043821 -0.319928 0.190056 
-0.125277 -0.31044 0.180635 -0.180545 -0.278208 0.153931 -0.227226 -0.246134 0.12693 
-0.240415 -0.214681 0.0987667 -0.248061 -0.186327 0.0721866 0.213694 -0.136011 0.0492453 
0.209407 -0.168969 0.0670188 0.204238 -0.202188 0.0849181 0.178357 -0.241533 0.105769 
0.149816 -0.279955 0.126068 0.091341 -0.307989 0.140155 0.0315009 -0.332047 0.152016 
-0.0381243 -0.327603 0.147921 -0.104173 -0.31902 0.141398 -0.151892 -0.289224 0.122436 
-0.193218 -0.259178 0.102934 -0.209611 -0.228158 0.0813313 -0.221367 -0.199869 0.0605408 
0.18042 -0.143977 0.0415579 0.174787 -0.1754 0.0552828 0.168395 -0.206989 0.0690579 
0.144187 -0.242466 0.0840078 0.118071 -0.277019 0.098514 0.0704958 -0.30117 0.108028 
0.0219516 -0.321918 0.116057 -0.0335371 -0.318267 0.113441 -0.086644 -0.310977 0.109122 
-0.127543 -0.28503 0.0960739 -0.163868 -0.258531 0.0823643 -0.18236 -0.229877 0.0660733 
-0.197158 -0.203457 0.0500105 0.179238 0.141661 -0.00338779 0.174356 0.168462 0.00182269 
0.168879 0.195324 0.00703495 0.149427 0.22361 0.0122883 0.128594 0.250909 0.0173219 
0.0922156 0.267107 0.0198826 0.0551958 0.28019 0.0218113 0.0135754 0.270953 0.0192116 
-0.0262471 0.258217 0.0158781 -0.056854 0.227548 0.00878467 -0.0839238 0.195702 0.00136996 
-0.097199 0.159265 -0.00729758 -0.107415 0.123993 -0.0157927 0.209833 0.138321 0.00344292 
0.205663 0.169085 0.0111106 0.200756 0.200036 0.0188117 0.178543 0.235375 0.0272967 
0.154266 0.269643 0.0354939 0.106763 0.291872 0.0404532 0.0582638 0.310037 0.0444387 
0.00261317 0.299075 0.0414465 -0.0502307 0.283724 0.0373697 -0.0886887 0.245873 0.0277349 
-0.121962 0.207146 0.0177867 -0.135017 0.165006 0.00661625 -0.144057 0.124829 -0.00413824 
0.242143 0.130692 0.0104604 0.239266 0.164013 0.0208797 0.23551 0.197643 0.0313791 
0.211084 0.238549 0.0437608 0.18376 0.27836 0.0557871 0.123824 0.305858 0.0638139 
0.0624354 0.328459 0.0704155 -0.00936609 0.315962 0.0668026 -0.0770834 0.298336 0.0616593 
-0.123867 0.254423 0.0486729 -0.163537 0.210014 0.035432 -0.175461 0.163671 0.0211982 
-0.18244 0.120001 0.00769974 0.278737 0.11234 0.0179449 0.27861 0.1447 0.0318516 
0.277457 0.177486 0.0459231 0.25219 0.220246 0.0638643 0.22281 0.262036 0.0813832 
0.147166 0.292898 0.0941502 0.069366 0.31832 0.104766 -0.0238881 0.304762 0.0999621 
-0.111109 0.285716 0.0929446 -0.167406 0.23854 0.0745808 -0.213952 0.191441 0.0561488 
-0.222467 0.144645 0.0374507 -0.225179 0.101013 0.0199967 0.312145 0.0883675 0.0248377 
0.315021 0.116758 0.0420718 0.316746 0.14561 0.0595632 0.291422 0.1853 0.0831012 
0.260753 0.224196 0.106171 0.169945 0.254156 0.12397 0.0762434 0.278814 0.138841 
-0.0382036 0.265481 0.132718 -0.144589 0.246927 0.123675 -0.209659 0.201618 0.0996656 
-0.262383 0.156764 0.0758379 -0.266957 0.11368 0.0527177 -0.265049 0.0737704 0.0313691 
0.338977 0.0528031 0.0305104 0.345381 0.0710166 0.0507414 0.350553 0.0895669 0.0713391 
0.326792 0.116028 0.100551 0.296412 0.141983 0.129291 0.191564 0.162239 0.152726 
0.0830111 0.178735 0.172348 -0.0520931 0.168281 0.164641 -0.176946 0.154168 0.15326 
-0.249259 0.121307 0.123053 -0.306719 0.0888714 0.093407 -0.306258 0.0580921 0.0659521 
-0.298998 0.0295044 0.0408343 0.354747 0.0145472 0.0345667 0.363271 0.0207854 0.0566863 
0.370511 0.0271711 0.0792395 0.347604 0.0370248 0.111981 0.317295 0.0466692 0.144248 
0.203711 0.0539585 0.171183 0.0859237 0.059553 0.193763 -0.0619929 0.0530019 0.185132 
-0.19832 0.0448078 0.172364 -0.275247 0.0281936 0.138394 -0.335786 0.0117536 0.105213 
-0.332413 -0.00400733 0.0751092 -0.322042 -0.0189219 0.0476804 0.351464 -0.0283437 0.0358392 
0.359685 -0.037178 0.0579384 0.36662 -0.046165 0.0804656 0.343346 -0.0587366 0.113045 
0.312732 -0.0712043 0.145149 0.199548 -0.0825036 0.171905 0.0821967 -0.0925276 0.194355 
-0.0650215 -0.0934113 0.185937 -0.200778 -0.0931427 0.173419 -0.277793 -0.0869684 0.139879 
-0.338554 -0.0812519 0.107093 -0.335929 -0.0773209 0.0772442 -0.326303 -0.0745132 0.0500158 
0.336368 -0.0674237 0.0353556 0.342847 -0.0890166 0.056263 0.348071 -0.110981 0.0775495 
0.323783 -0.141677 0.107743 0.292725 -0.171968 0.137463 0.185513 -0.197712 0.161866 
0.0744887 -0.219871 0.182359 -0.0638592 -0.216342 0.174832 -0.191751 -0.20944 0.163537 
-0.266049 -0.185243 0.132937 -0.325247 -0.161866 0.102904 -0.325556 -0.14169 0.0750853 
-0.319012 -0.12417 0.0495965 0.304141 -0.100978 0.0323257 0.306795 -0.131974 0.0503424 
0.308269 -0.163443 0.0686272 0.282027 -0.206026 0.0932099 0.250323 -0.247923 0.117328 
0.157163 -0.282101 0.136224 0.0610079 -0.311344 0.152113 -0.0566201 -0.305224 0.146455 
-0.166067 -0.294338 0.137799 -0.233584 -0.259029 0.113774 -0.28863 -0.224513 0.0899151 
-0.295043 -0.193089 0.0667002 -0.294968 -0.16522 0.0451833 0.268366 -0.126337 0.0285399 
0.267661 -0.162616 0.0435308 0.26588 -0.199367 0.0586931 0.238832 -0.247234 0.0778832 
0.207565 -0.294212 0.0966457 0.128829 -0.331188 0.110597 0.0478416 -0.362768 0.122352 
-0.0492798 -0.355686 0.118364 -0.14033 -0.343276 0.112095 -0.200263 -0.303566 0.0941349 
-0.250352 -0.264384 0.0760367 -0.262051 -0.227258 0.0573987 -0.267892 -0.193958 0.0398703 
0.228238 -0.141639 0.0238263 0.224746 -0.178143 0.0356254 0.220316 -0.214995 0.0475171 
0.19387 -0.260042 0.061582 0.16437 -0.304094 0.0752905 0.100513 -0.33695 0.0849896 
0.0350613 -0.365042 0.0931872 -0.041815 -0.358996 0.0906231 -0.114526 -0.348081 0.086433 
-0.165891 -0.312208 0.0739099 -0.210035 -0.276304 0.0610663 -0.226018 -0.240283 0.0469725 
-0.237094 -0.207585 0.0334533 0.191548 -0.149444 0.0194125 0.186251 -0.183931 0.0285461 
0.180152 -0.218643 0.0377186 0.155184 -0.258648 0.0478058 0.128069 -0.297648 0.0576071 
0.0767964 -0.325341 0.0641923 0.0244191 -0.349048 0.0697898 -0.0358767 -0.344191 0.0683085 
-0.0934639 -0.335129 0.0656996 -0.137169 -0.304521 0.057312 -0.175794 -0.273466 0.0485086 
-0.194609 -0.240665 0.0380838 -0.209528 -0.210551 0.0278318 0.184335 0.147691 -0.0233258 
0.179505 0.176661 -0.0219909 0.174053 0.205722 -0.0206584 0.153975 0.236931 -0.0193844 
0.132398 0.267098 -0.0182043 0.0939716 0.285552 -0.0180809 0.0548416 0.300578 -0.0182212 
0.0106715 0.291035 -0.0202514 -0.0315378 0.277681 -0.0225935 -0.0636969 0.244797 -0.0265337 
-0.0920334 0.210771 -0.0306254 -0.105462 0.172291 -0.0353077 -0.11563 0.135213 -0.0399299 
0.217521 0.14499 -0.0202095 0.213649 0.178537 -0.017852 0.209004 0.212326 -0.015483 
0.186197 0.251832 -0.0128434 0.161122 0.29021 -0.0103208 0.110545 0.315891 -0.00911374 
0.0588588 0.336998 -0.00830075 -0.000769826 0.325321 -0.0103121 -0.0572891 0.308767 -0.0127651 
-0.0978716 0.267222 -0.017482 -0.132798 0.224913 -0.0223338 -0.145666 0.179628 -0.0277117 
-0.154273 0.136673 -0.0329261 0.25278 0.13775 -0.016981 0.250576 0.174352 -0.0134805 
0.247447 0.211347 -0.00994816 0.222599 0.25757 -0.00566743 0.194528 0.302646 -0.00152637 
0.130192 0.334809 0.00104335 0.0642179 0.361364 0.00304144 -0.0134948 0.34773 0.000942916 
-0.0866148 0.328312 -0.00176823 -0.136195 0.279255 -0.007619 -0.177942 0.229912 -0.0135675 
-0.189139 0.179451 -0.0198972 -0.195117 0.132156 -0.02593 0.293224 0.11916 -0.0134719 
0.294461 0.155017 -0.00852745 0.29462 0.19141 -0.00351492 0.269453 0.240399 0.00309614 
0.239638 0.288392 0.00954547 0.157524 0.325172 0.0141753 0.0729317 0.355594 0.0179381 
-0.0294291 0.340444 0.0154871 -0.124877 0.319003 0.0121501 -0.18489 0.265313 0.00427223 
-0.234034 0.212057 -0.00361457 -0.240785 0.160491 -0.0115362 -0.241461 0.1127 -0.0189529 
0.330345 0.0945049 -0.0101459 0.335358 0.126212 -0.0038144 0.339166 0.158502 0.0026249 
0.314645 0.204467 0.0115968 0.284007 0.249635 0.0203938 0.184555 0.285841 0.0272219 
0.0817269 0.315768 0.0328624 -0.0453019 0.300689 0.0299912 -0.162964 0.279558 0.0259479 
-0.232621 0.227413 0.0158982 -0.288391 0.176147 0.00595539 -0.290002 0.128311 -0.00357021 
-0.284895 0.0842799 -0.0123744 0.36061 0.0573403 -0.00719719 0.370093 0.0778774 0.000403698 
0.378294 0.0988417 0.00815953 0.356407 0.129841 0.0195553 0.326847 0.160345 0.030781 
0.210963 0.185267 0.0400926 0.0906899 0.205701 0.0478437 -0.0610478 0.193963 0.0444124 
-0.200693 0.17796 0.0394972 -0.278363 0.140099 0.0269769 -0.33917 0.102999 0.0147355 
-0.334212 0.0688651 0.00358136 -0.322325 0.0373751 -0.006618 0.378537 0.0172326 -0.0048294 
0.390716 0.0245315 0.00359993 0.401566 0.0320207 0.0122132 0.381186 0.0439831 0.0251491 
0.352178 0.0557474 0.0379178 0.226093 0.0652846 0.0488067 0.0949953 0.0727854 0.0579074 
-0.0720369 0.0656929 0.0541928 -0.225312 0.0566778 0.0488027 -0.308078 0.0378106 0.034826 
-0.372159 0.019281 0.0212311 -0.363365 0.0020678 0.00912456 -0.34751 -0.0141051 -0.00188892 
0.375211 -0.0279435 -0.00346207 0.387036 -0.0374445 0.00503624 0.397529 -0.0471327 0.0137164 
0.376717 -0.0612194 0.0266701 0.347355 -0.0752102 0.0394565 0.2218 -0.0881231 0.0503623 
0.0912791 -0.0994794 0.0595015 -0.0748336 -0.0996802 0.0559804 -0.227351 -0.0985033 0.0507995 
-0.310189 -0.090266 0.037113 -0.374506 -0.0826384 0.0237922 -0.366589 -0.077389 0.0118978 
-0.351605 -0.0734648 0.00107076 0.358728 -0.0690027 -0.00273241 0.368392 -0.0926481 0.00536976 
0.376752 -0.116755 0.0136334 0.354453 -0.151716 0.0256908 0.324301 -0.186286 0.0375807 
0.205798 -0.21645 0.047585 0.0827734 -0.242297 0.0559918 -0.0726541 -0.237205 0.0529493 
-0.215734 -0.228136 0.0483871 -0.29553 -0.198692 0.0360371 -0.358175 -0.17043 0.0239697 
-0.353932 -0.146785 0.0130053 -0.342733 -0.126293 0.0029853 0.323166 -0.104092 -0.00292739 
0.328049 -0.138031 0.00410424 0.3317 -0.172558 0.0112504 0.306386 -0.22089 0.0210862 
0.274811 -0.268532 0.0307536 0.172817 -0.308409 0.038525 0.0673228 -0.342416 0.0450815 
-0.0632591 -0.334348 0.0429311 -0.184316 -0.320724 0.0395813 -0.256554 -0.278623 0.0300849 
-0.314762 -0.237737 0.0206912 -0.31825 -0.201593 0.0116977 -0.31506 -0.16965 0.00338436 
0.283968 -0.130392 -0.00337845 0.284677 -0.169979 0.00253884 0.284258 -0.210153 0.00853005 
0.257348 -0.264127 0.0162574 0.22567 -0.317186 0.0238275 0.140349 -0.359959 0.029629 
0.0524437 -0.396387 0.0345547 -0.0539915 -0.387344 0.0332037 -0.153471 -0.372151 0.0309495 
-0.217301 -0.325435 0.0240658 -0.270173 -0.279634 0.0171488 -0.280308 -0.237396 0.010102 
-0.284355 -0.199654 0.00349253 0.240307 -0.145906 -0.00414382 0.237585 -0.185437 0.00060542 
0.233882 -0.225401 0.00539584 0.20712 -0.275531 0.0111534 0.176956 -0.324614 0.01678 
0.108511 -0.361915 0.0209342 0.0382658 -0.393722 0.0244984 -0.0448803 -0.386161 0.0238333 
-0.12333 -0.373064 0.0225312 -0.177709 -0.331604 0.0179642 -0.224142 -0.290346 0.0132825 
-0.239591 -0.249877 0.00815282 -0.249928 -0.213271 0.00324369 0.20072 -0.15354 -0.00477548 
0.195761 -0.19061 -0.000979747 0.189963 -0.227962 0.00283514 0.164453 -0.271931 0.00709969 
0.136588 -0.314831 0.01126 0.0822315 -0.345709 0.0142482 0.0266515 -0.372074 0.0168554 
-0.0376973 -0.366096 0.0167328 -0.09905 -0.355411 0.0161741 -0.145046 -0.320596 0.0133805 
-0.185527 -0.285449 0.0104291 -0.204501 -0.249005 0.00686207 -0.219418 -0.215653 0.00335625 
0.182185 0.147506 -0.0442058 0.17729 0.176188 -0.0470239 0.171776 0.204958 -0.0498509 
0.151696 0.235764 -0.0528874 0.130138 0.265545 -0.0558807 0.0919583 0.283796 -0.0583862 
0.0530848 0.298697 -0.0607439 0.00923633 0.289591 -0.0620429 -0.0326835 0.27676 -0.0631844 
-0.0647182 0.244835 -0.0635187 -0.092972 0.211787 -0.0638243 -0.10648 0.174352 -0.064018 
-0.116725 0.138291 -0.0642856 0.214999 0.144801 -0.0451012 0.21102 0.177931 -0.048507 
0.206274 0.211294 -0.0519296 0.18348 0.25012 -0.0557456 0.158459 0.287833 -0.0594923 
0.108378 0.313023 -0.0624595 0.0572098 0.33376 -0.0651636 -0.00175233 0.322577 -0.0659825 
-0.0576668 0.306636 -0.06652 -0.0979607 0.266313 -0.0656147 -0.132682 0.225218 -0.0646641 
-0.145671 0.181107 -0.0635366 -0.154414 0.139259 -0.062547 0.249809 0.137601 -0.04598 
0.247426 0.173681 -0.050064 0.244125 0.210136 -0.0541774 0.21927 0.255417 -0.0589826 
0.191259 0.299562 -0.0636933 0.127732 0.330936 -0.0673404 0.0626065 0.356867 -0.0705761 
-0.0139845 0.343791 -0.0708631 -0.0860899 0.325085 -0.0707174 -0.135204 0.277521 -0.068354 
-0.176625 0.22963 -0.0659485 -0.188039 0.180458 -0.0633783 -0.194262 0.134348 -0.0610375 
0.28961 0.119166 -0.0468171 0.29052 0.154449 -0.0518053 0.290361 0.190245 -0.0568479 
0.265075 0.238067 -0.0631668 0.235255 0.284897 -0.0693676 0.154424 0.320563 -0.0742405 
0.0711829 0.350086 -0.0784708 -0.0293255 0.335579 -0.078096 -0.123113 0.314965 -0.0770694 
-0.182451 0.263054 -0.0727018 -0.231149 0.211493 -0.0683446 -0.23835 0.161298 -0.0640279 
-0.239509 0.11474 -0.0601008 0.32611 0.0947503 -0.0474001 0.330628 0.125917 -0.0532443 
0.333948 0.157639 -0.0591705 0.309148 0.202408 -0.0670208 0.2784 0.246378 -0.0747367 
0.18073 0.281362 -0.0809387 0.0797905 0.310297 -0.0862512 -0.0445816 0.295877 -0.0851886 
-0.159879 0.275596 -0.0832489 -0.228667 0.22528 -0.0768142 -0.283894 0.175739 -0.0704647 
-0.286235 0.129218 -0.0644476 -0.281883 0.0863563 -0.0589881 0.355804 0.0580001 -0.0474589 
0.364575 0.0782027 -0.0540596 0.372073 0.0988125 -0.0607753 0.349649 0.128986 -0.070194 
0.319785 0.15866 -0.079476 0.206241 0.182705 -0.0872206 0.0884628 0.202434 -0.0937959 
-0.0596623 0.191231 -0.0919914 -0.196117 0.175904 -0.0890723 -0.272757 0.139438 -0.080441 
-0.332969 0.103647 -0.0720156 -0.329116 0.0704928 -0.0643933 -0.318336 0.039874 -0.0575126 
0.373428 0.0183516 -0.0469544 0.384767 0.0255807 -0.0539702 0.394783 0.032991 -0.0611212 
0.373712 0.044659 -0.071445 0.344287 0.0561263 -0.0816302 0.220886 0.0653347 -0.0902547 
0.0926576 0.0725896 -0.0975379 -0.0701749 0.0658446 -0.0952079 -0.219751 0.0572425 -0.0916168 
-0.301386 0.0391235 -0.0815625 -0.364839 0.0212995 -0.0717871 -0.357382 0.00462566 -0.0630993 
-0.342849 -0.0110596 -0.0552664 0.370267 -0.0262883 -0.0454797 0.381269 -0.0354932 -0.0523231 
0.390945 -0.0448765 -0.059299 0.369468 -0.0584496 -0.0693859 0.339711 -0.071922 -0.0793322 
0.216818 -0.0842615 -0.0876953 0.0891411 -0.0951088 -0.0947304 -0.0728196 -0.0952628 -0.0922477 
-0.221679 -0.0940893 -0.088514 -0.303389 -0.0861128 -0.0783692 -0.367077 -0.0787094 -0.068494 
-0.360476 -0.0735408 -0.0596702 -0.3468 -0.0696589 -0.051693 0.354232 -0.0668824 -0.0434083 
0.363176 -0.0899398 -0.0497181 0.370823 -0.113437 -0.0561443 0.347988 -0.147277 -0.0653052 
0.31754 -0.180717 -0.0743244 0.201461 -0.209659 -0.0817484 0.0810204 -0.234455 -0.0879669 
-0.0706734 -0.229529 -0.0855463 -0.210456 -0.220762 -0.0819781 -0.289191 -0.192313 -0.0725286 
-0.351226 -0.164958 -0.0632917 -0.348133 -0.141867 -0.0548843 -0.338088 -0.121824 -0.0472407 
0.319531 -0.10161 -0.0404718 0.323922 -0.134776 -0.0457243 0.32709 -0.168503 -0.0510577 
0.301516 -0.215397 -0.0582933 0.269856 -0.261594 -0.0653873 0.169734 -0.299969 -0.0708894 
0.0662235 -0.332689 -0.075467 -0.0615801 -0.324874 -0.0734201 -0.180165 -0.311679 -0.0704642 
-0.2515 -0.270911 -0.0628493 -0.309146 -0.231253 -0.0553211 -0.313403 -0.195926 -0.0481309 
-0.311014 -0.16466 -0.0415138 0.281206 -0.12768 -0.0372607 0.281615 -0.16642 -0.0414144 
0.280907 -0.205721 -0.0456181 0.253945 -0.25819 -0.0509989 0.222331 -0.309744 -0.0562473 
0.138389 -0.351008 -0.0600074 0.051931 -0.386142 -0.0630941 -0.0525513 -0.377349 -0.0613546 
-0.150277 -0.362588 -0.0589279 -0.213372 -0.317235 -0.0529792 -0.265751 -0.272699 -0.0470217 
-0.276338 -0.231348 -0.0410298 -0.280884 -0.194346 -0.0354317 0.238434 -0.143125 -0.0337127 
0.235561 -0.181874 -0.0367166 0.231716 -0.221035 -0.0397453 0.205025 -0.269901 -0.0433578 
0.175002 -0.317727 -0.0468582 0.107509 -0.353849 -0.0490972 0.0382574 -0.384638 -0.0508768 
-0.0436016 -0.377213 -0.0493633 -0.120884 -0.364396 -0.0473641 -0.174706 -0.32395 -0.0428748 
-0.220742 -0.283646 -0.0383187 -0.236406 -0.243898 -0.033502 -0.247003 -0.207893 -0.0289137 
0.199599 -0.15078 -0.0302372 0.194591 -0.187164 -0.0322522 0.188751 -0.223816 -0.0342747 
0.163379 -0.266773 -0.0364734 0.135692 -0.308673 -0.0385798 0.0819735 -0.338668 -0.0396501 
0.0270531 -0.364262 -0.040418 -0.0364837 -0.358323 -0.0390193 -0.0970897 -0.347781 -0.0372869 
-0.142673 -0.313652 -0.033844 -0.182836 -0.279159 -0.0303025 -0.201862 -0.243246 -0.0263759 
-0.216867 -0.210331 -0.0225509 0.178176 0.145727 -0.0653272 0.173187 0.173492 -0.0723694 
0.167589 0.20133 -0.0794276 0.147667 0.230881 -0.0868597 0.126322 0.259442 -0.0941082 
0.0889786 0.27686 -0.0992917 0.0509683 0.291107 -0.103905 0.00817778 0.282628 -0.104431 
-0.0327664 0.270611 -0.104319 -0.0642467 0.24046 -0.100931 -0.0920719 0.209199 -0.0973316 
-0.105642 0.173602 -0.0929076 -0.115995 0.139282 -0.0886974 0.209859 0.142852 -0.0703107 
0.20567 0.174747 -0.0795959 0.20073 0.206846 -0.0889279 0.178105 0.243748 -0.0993559 
0.153354 0.279571 -0.109524 0.104686 0.303261 -0.116774 0.0549853 0.322779 -0.123083 
-0.00211933 0.312399 -0.122656 -0.0563315 0.297536 -0.121203 -0.095718 0.259698 -0.114495 
-0.129758 0.221046 -0.107561 -0.142947 0.179218 -0.0997451 -0.151972 0.139472 -0.0923815 
0.243348 0.135604 -0.0753783 0.240569 0.170187 -0.0872174 0.236892 0.205102 -0.0991507 
0.212136 0.247834 -0.113294 0.18439 0.28946 -0.127104 0.123009 0.318647 -0.137163 
0.060125 0.342781 -0.145794 -0.0135411 0.330698 -0.144194 -0.0829865 0.313344 -0.141082 
-0.130799 0.268975 -0.130228 -0.171277 0.224173 -0.119196 -0.183149 0.177677 -0.107471 
-0.189938 0.133985 -0.0965239 0.281354 0.117425 -0.0806566 0.281504 0.151091 -0.0958264 
0.280609 0.185211 -0.11118 0.255149 0.22997 -0.130838 0.225434 0.273748 -0.150095 
0.147872 0.306497 -0.16482 0.0680713 0.333608 -0.177336 -0.0277746 0.320316 -0.174014 
-0.117366 0.301356 -0.168449 -0.174904 0.25335 -0.151385 -0.222376 0.205498 -0.134348 
-0.230594 0.158248 -0.117418 -0.23288 0.114307 -0.101812 0.316123 0.0934849 -0.0852363 
0.319469 0.123122 -0.103583 0.321644 0.15325 -0.122211 0.296288 0.194907 -0.147462 
0.265393 0.235762 -0.172265 0.172178 0.26761 -0.192025 0.0759516 0.293949 -0.208733 
-0.0418565 0.280804 -0.203561 -0.151291 0.262252 -0.195386 -0.217811 0.215986 -0.17182 
-0.271575 0.170255 -0.148561 -0.275593 0.126606 -0.126502 -0.27301 0.0862702 -0.106338 
0.344217 0.0576657 -0.0883753 0.351307 0.0768523 -0.10958 0.357144 0.0963975 -0.131186 
0.333564 0.12437 -0.162188 0.30311 0.151835 -0.192745 0.195334 0.173581 -0.218297 
0.0836957 0.191415 -0.239829 -0.0556256 0.181215 -0.232543 -0.184278 0.167221 -0.221438 
-0.258249 0.133788 -0.190767 -0.316857 0.100839 -0.160838 -0.315547 0.0697757 -0.133805 
-0.307342 0.0409955 -0.10929 0.360909 0.019069 -0.0897789 0.370256 0.0259383 -0.11269 
0.378299 0.0329665 -0.136073 0.35571 0.0437242 -0.170542 0.325429 0.0542747 -0.204567 
0.208605 0.0624936 -0.233594 0.0873945 0.0689507 -0.258006 -0.06526 0.062781 -0.249342 
-0.205843 0.0549082 -0.236358 -0.28456 0.0383072 -0.201238 -0.346316 0.0219055 -0.167122 
-0.341928 0.00628164 -0.136923 -0.330462 -0.00846815 -0.10962 0.357965 -0.0243112 -0.0881936 
0.367009 -0.0329733 -0.110825 0.374747 -0.0417937 -0.133921 0.351802 -0.054333 -0.167924 
0.32123 -0.0667635 -0.201479 0.204853 -0.0779688 -0.229987 0.0841261 -0.0878351 -0.253931 
-0.0677733 -0.0881053 -0.24516 -0.207739 -0.087169 -0.232108 -0.286539 -0.0800493 -0.197112 
-0.348525 -0.0734174 -0.163084 -0.344936 -0.0686884 -0.132833 -0.334275 -0.065146 -0.105436 
0.342849 -0.0638136 -0.0847476 0.350072 -0.0856058 -0.105881 0.35602 -0.107788 -0.127425 
0.332 -0.139125 -0.158594 0.300949 -0.170049 -0.189312 0.19081 -0.196323 -0.214941 
0.0766936 -0.218851 -0.236436 -0.0659296 -0.214535 -0.228301 -0.197675 -0.206703 -0.216244 
-0.273667 -0.180851 -0.184085 -0.334052 -0.155886 -0.152688 -0.33357 -0.134383 -0.124263 
-0.326168 -0.115665 -0.0983933 0.310085 -0.0976931 -0.0786036 0.313286 -0.129134 -0.0964733 
0.315289 -0.161071 -0.11463 0.289151 -0.204683 -0.139533 0.257351 -0.247594 -0.163981 
0.161847 -0.28262 -0.183307 0.0632231 -0.3125 -0.199481 -0.0577682 -0.305502 -0.19306 
-0.17027 -0.293549 -0.183542 -0.239261 -0.256198 -0.158154 -0.29539 -0.219716 -0.133074 
-0.301362 -0.186626 -0.109197 -0.300779 -0.157254 -0.0872064 0.273736 -0.123233 -0.0716465 
0.273405 -0.160061 -0.0861268 0.271984 -0.197387 -0.100788 0.244921 -0.246399 -0.119699 
0.213494 -0.294502 -0.138183 0.132971 -0.332384 -0.151866 0.0501068 -0.364651 -0.163268 
-0.0495337 -0.356674 -0.158322 -0.142894 -0.343168 -0.151044 -0.204066 -0.301323 -0.131813 
-0.255112 -0.260075 -0.112546 -0.266668 -0.22115 -0.0931448 -0.272302 -0.186216 -0.0750087 
0.232986 -0.138537 -0.0636915 0.229727 -0.175526 -0.0746287 0.225518 -0.212882 -0.0856606 
0.198995 -0.258855 -0.0989156 0.169321 -0.303811 -0.111811 0.1042 -0.337312 -0.120661 
0.0374251 -0.365871 -0.127966 -0.0412091 -0.359006 -0.124203 -0.115553 -0.3471 -0.118796 
-0.167904 -0.30936 -0.104968 -0.212852 -0.271628 -0.0908985 -0.228923 -0.233927 -0.0758836 
-0.240037 -0.199679 -0.0615706 0.19584 -0.146263 -0.0560254 0.190683 -0.181121 -0.0639724 
0.184713 -0.216217 -0.0719554 0.159652 -0.256887 -0.0807814 0.132381 -0.296529 -0.0893152 
0.0802558 -0.324598 -0.094562 0.0269853 -0.348543 -0.0988037 -0.0344922 -0.342939 -0.0958421 
-0.0931943 -0.332995 -0.0917569 -0.137672 -0.300807 -0.0819128 -0.17696 -0.268185 -0.0717139 
-0.19601 -0.233871 -0.0601308 -0.211126 -0.202336 -0.048825 0.167937 0.138427 -0.082519 
0.162833 0.163334 -0.0924387 0.157157 0.18828 -0.102369 0.13803 0.214143 -0.112561 
0.11764 0.239111 -0.122471 0.083043 0.25401 -0.129206 0.0478586 0.26618 -0.135116 
0.00846253 0.258802 -0.135112 -0.0293133 0.248353 -0.134169 -0.0587847 0.222158 -0.128407 
-0.0849835 0.194886 -0.122276 -0.0984193 0.163407 -0.114706 -0.108864 0.132935 -0.107389 
0.196175 0.134935 -0.090365 0.191589 0.163168 -0.10346 0.186302 0.191541 -0.116604 
0.164545 0.2232 -0.13089 0.140935 0.253885 -0.144787 0.0965001 0.273613 -0.154309 
0.0511765 0.289841 -0.162523 -0.000514799 0.280983 -0.161365 -0.04972 0.268312 -0.158758 
-0.0861829 0.2361 -0.148723 -0.117938 0.203013 -0.138282 -0.131335 0.166515 -0.126257 
-0.140885 0.131654 -0.11479 0.225768 0.127443 -0.0983043 0.222161 0.157728 -0.114959 
0.217722 0.188251 -0.131719 0.193754 0.224353 -0.150957 0.167226 0.259453 -0.1697 
0.111907 0.283283 -0.182868 0.055322 0.302952 -0.194108 -0.0103434 0.292808 -0.191539 
-0.0724488 0.278251 -0.186895 -0.116307 0.241082 -0.171611 -0.153798 0.203309 -0.155952 
-0.166457 0.163179 -0.13883 -0.174427 0.12524 -0.122677 0.258746 0.109949 -0.106477 
0.257271 0.139105 -0.127649 0.25483 0.168588 -0.149032 0.2297 0.20575 -0.175369 
0.201003 0.242009 -0.201103 0.132189 0.268116 -0.220065 0.0615364 0.289687 -0.236138 
-0.0223003 0.278742 -0.231517 -0.100983 0.26314 -0.223899 -0.153247 0.223669 -0.200928 
-0.196921 0.184029 -0.177783 -0.207093 0.143729 -0.15396 -0.211773 0.105991 -0.131774 
0.288731 0.0873274 -0.113626 0.289575 0.112758 -0.139072 0.289338 0.138545 -0.164843 
0.263679 0.172683 -0.198272 0.233444 0.206072 -0.231019 0.151721 0.231037 -0.256097 
0.0675671 0.251634 -0.277272 -0.0340176 0.240922 -0.270478 -0.128814 0.225821 -0.259749 
-0.188816 0.18823 -0.228855 -0.238062 0.150773 -0.198069 -0.245356 0.113841 -0.167703 
-0.246503 0.0794546 -0.139665 0.312544 0.0541299 -0.118665 0.316095 0.0704828 -0.14788 
0.318486 0.0870945 -0.177556 0.293604 0.109785 -0.218065 0.263127 0.131992 -0.257868 
0.169705 0.148763 -0.289726 0.0732188 0.162459 -0.316556 -0.0452408 0.154109 -0.307343 
-0.155195 0.1427 -0.293219 -0.221559 0.115612 -0.253918 -0.275116 0.0886918 -0.215171 
-0.278728 0.062423 -0.178587 -0.275836 0.0378889 -0.145069 0.326656 0.0184976 -0.121252 
0.331833 0.0242495 -0.152733 0.335799 0.0301141 -0.184757 0.311306 0.0386265 -0.229548 
0.280592 0.0469376 -0.273616 0.179885 0.052983 -0.309552 0.0757214 0.057653 -0.339766 
-0.0532209 0.0524661 -0.328982 -0.17261 0.0459104 -0.312682 -0.243036 0.0323401 -0.268116 
-0.299402 0.0188163 -0.224372 -0.300929 0.00547346 -0.183834 -0.295731 -0.00723222 -0.146806 
0.324063 -0.0213279 -0.119617 0.329002 -0.0287999 -0.150772 0.332729 -0.03639 -0.182463 
0.307958 -0.0467572 -0.226718 0.277015 -0.0570161 -0.270247 0.176623 -0.0660577 -0.305603 
0.0728003 -0.0740712 -0.335295 -0.0556157 -0.0747171 -0.324395 -0.174582 -0.0744187 -0.308022 
-0.245113 -0.0692814 -0.263604 -0.301697 -0.0644824 -0.219965 -0.303892 -0.0610029 -0.179371 
-0.299372 -0.0584762 -0.142228 0.311098 -0.057727 -0.115343 0.314693 -0.0764561 -0.144581 
0.317106 -0.0954721 -0.174291 0.291728 -0.121228 -0.215098 0.260632 -0.146587 -0.255186 
0.165211 -0.167478 -0.287195 0.0666341 -0.185451 -0.314041 -0.0545645 -0.182508 -0.303884 
-0.167107 -0.176764 -0.288684 -0.235283 -0.156662 -0.247642 -0.290466 -0.137096 -0.207162 
-0.294972 -0.119615 -0.168873 -0.29294 -0.104329 -0.133673 0.283095 -0.0891578 -0.107245 
0.283741 -0.116292 -0.132255 0.283281 -0.143792 -0.157596 0.256817 -0.179876 -0.190731 
0.22568 -0.215303 -0.223173 0.141981 -0.243349 -0.247822 0.0557625 -0.267329 -0.268453 
-0.0485164 -0.262179 -0.260282 -0.145935 -0.253032 -0.248061 -0.208191 -0.223394 -0.215079 
-0.25962 -0.194215 -0.182183 -0.268822 -0.166823 -0.149624 -0.271902 -0.142366 -0.11935 
0.251713 -0.113133 -0.0979284 0.249765 -0.145107 -0.118487 0.24681 -0.177445 -0.139254 
0.220183 -0.218353 -0.164918 0.189896 -0.258422 -0.18995 0.118426 -0.289066 -0.207869 
0.0450263 -0.315214 -0.222809 -0.0421995 -0.309144 -0.216396 -0.124259 -0.29856 -0.206868 
-0.179841 -0.264839 -0.181376 -0.22679 -0.231339 -0.155615 -0.240066 -0.198699 -0.128799 
-0.247852 -0.169223 -0.103509 0.216184 -0.127958 -0.0871164 0.212076 -0.160395 -0.102949 
0.207089 -0.193099 -0.118888 0.181436 -0.232075 -0.137329 0.153092 -0.270126 -0.155241 
0.0944711 -0.297776 -0.167205 0.0344561 -0.321378 -0.177098 -0.0355527 -0.315969 -0.172159 