# vtk DataFile Version 2.0
vtk output
ASCII
DATASET RECTILINEAR_GRID
DIMENSIONS 13 13 13
X_COORDINATES 13 float
-5 -4.79167 -4.58333 -4.375 -4.16667 -3.95833 -3.75 -3.54167 -3.33333 
-3.125 -2.91667 -2.70833 -2.5 
Y_COORDINATES 13 float
-2.5 -2.29167 -2.08333 -1.875 -1.66667 -1.45833 -1.25 -1.04167 -0.833333 
-0.625 -0.416667 -0.208333 0 
Z_COORDINATES 13 float
7.5 7.70833 7.91667 8.125 8.33333 8.54167 8.75 8.95833 9.16667 
9.375 9.58333 9.79167 10 
POINT_DATA 2197
VECTORS grad float
0.190049 0.234953 -0.0193639 0.239744 0.214202 -0.0203779 0.27569 0.175478 -0.0200895 
0.299475 0.120852 -0.0186491 0.298921 0.059889 -0.0181695 0.280113 -0.00582798 -0.0184105 
0.239166 -0.0605544 -0.0193459 0.184198 -0.10832 -0.0207211 0.122948 -0.132468 -0.020439 
0.0583601 -0.144069 -0.0192764 0.00580083 -0.136148 -0.0162234 -0.0414517 -0.119615 -0.0123362 
-0.0693927 -0.0969314 -0.00844854 0.177525 0.193114 0.0177475 0.211525 0.174613 0.0193 
0.234644 0.14283 0.0212397 0.248137 0.0992974 0.0235221 0.24401 0.0509465 0.0245205 
0.226668 -0.00101786 0.024556 0.193756 -0.0449517 0.0231372 0.150984 -0.0837995 0.0207974 
0.103637 -0.105374 0.0184143 0.0538585 -0.117771 0.0160083 0.0121644 -0.11477 0.0143581 
-0.0259633 -0.104975 0.0130414 -0.0500052 -0.0887081 0.0120594 0.166307 0.156441 0.0433732 
0.190127 0.140141 0.0468989 0.20499 0.113934 0.0502519 0.211931 0.0789631 0.0534522 
0.205483 0.0403972 0.0549401 0.188994 -0.000864655 0.0551435 0.161097 -0.0361472 0.0532291 
0.125973 -0.0676428 0.0499734 0.0876158 -0.0862499 0.0456791 0.0475405 -0.09801 0.0408331 
0.0135032 -0.0976579 0.0361069 -0.0178701 -0.0919621 0.0314336 -0.0383898 -0.0802748 0.0272393 
0.155466 0.121265 0.065674 0.170703 0.107151 0.0710012 0.178635 0.0861246 0.0756986 
0.180104 0.0589823 0.0798389 0.171698 0.0293828 0.0818076 0.155886 -0.00205951 0.0821477 
0.132128 -0.0293106 0.0797341 0.103337 -0.0539072 0.0755766 0.0725475 -0.0694336 0.0695892 
0.0406966 -0.0801414 0.0626299 0.0133876 -0.0817811 0.0552988 -0.0119177 -0.0794201 0.0478038 
-0.0290243 -0.0717807 0.0408767 0.145876 0.0931968 0.0785143 0.15584 0.0806136 0.0848422 
0.159611 0.0630166 0.0902857 0.157905 0.0409845 0.0949469 0.14846 0.0173087 0.0971673 
0.133209 -0.00759984 0.0975572 0.112094 -0.0292706 0.0948545 0.0872655 -0.0488907 0.0901933 
0.0612767 -0.0616769 0.0833121 0.0346717 -0.0708325 0.0752516 0.0118758 -0.0729487 0.0665608 
-0.00923955 -0.0719591 0.0575919 -0.0237179 -0.0665167 0.049195 0.136567 0.0667287 0.0892259 
0.142002 0.0555277 0.0963744 0.142237 0.0409665 0.102429 0.137873 0.0234329 0.107517 
0.127594 0.00499612 0.109938 0.112879 -0.0141179 0.110358 0.0940711 -0.0307598 0.107413 
0.0726711 -0.045836 0.102338 0.0508603 -0.0559586 0.0947428 0.0288311 -0.0634496 0.0858089 
0.01005 -0.0657012 0.0760385 -0.00729818 -0.0656413 0.065899 -0.0193247 -0.0619795 0.0563164 
0.127942 0.0466498 0.0922999 0.130735 0.0363065 0.0994951 0.129047 0.0236 0.105526 
0.123395 0.00880271 0.110527 0.112962 -0.00639485 0.112877 0.0989425 -0.0218926 0.113238 
0.0818601 -0.035251 0.11028 0.0628379 -0.0472545 0.105219 0.0438187 -0.0553108 0.0976183 
0.024801 -0.0612704 0.0886682 0.0086924 -0.0630863 0.0787942 -0.00613273 -0.063074 0.0685125 
-0.0164419 -0.060138 0.0587072 0.119432 0.0276358 0.0941009 0.119897 0.0180628 0.101214 
0.116554 0.00701398 0.107115 0.109843 -0.00534053 0.111944 0.0993689 -0.0176322 0.114178 
0.0860716 -0.0298768 0.114465 0.0706178 -0.0402426 0.111531 0.0537983 -0.0494184 0.106556 
0.0373396 -0.0555082 0.0990678 0.0210726 -0.0599585 0.0902446 0.0074129 -0.0612434 0.0804296 
-0.0050966 -0.0611318 0.0701771 -0.0138108 -0.0587458 0.0603096 0.111374 0.0143633 0.090487 
0.110585 0.00535698 0.0970118 0.106514 -0.0046145 0.10237 0.0995376 -0.0154398 0.106697 
0.0894637 -0.0259333 0.108648 0.0770664 -0.0361781 0.108816 0.0630255 -0.0446706 0.10606 
0.0479436 -0.0520534 0.101451 0.0333546 -0.0568156 0.0945233 0.0190275 -0.0601858 0.0863635 
0.00704358 -0.0609609 0.0772206 -0.00390653 -0.0605912 0.067644 -0.0115588 -0.0583828 0.0583368 
0.103367 0.00174328 0.0862577 0.101448 -0.00671959 0.0921369 0.096752 -0.0156796 0.0969061 
0.0896008 -0.0250795 0.100694 0.0799776 -0.0339008 0.102342 0.0685005 -0.0422882 0.102386 
0.0558479 -0.0490346 0.0998246 0.0424509 -0.0547418 0.0956141 0.0296531 -0.0582492 0.0892976 
0.0171736 -0.060588 0.0818623 0.00677769 -0.0608557 0.0734612 -0.00269897 -0.0602098 0.0646339 
-0.00934988 -0.0581367 0.0559578 0.0959641 -0.00584393 0.0790196 0.0935218 -0.0137654 0.0840932 
0.0887021 -0.0219399 0.0881629 0.0817793 -0.0303384 0.0913446 0.0728079 -0.0380661 0.0926723 
0.0623 -0.0452907 0.0926095 0.0508777 -0.0509872 0.0903084 0.0388762 -0.0557158 0.0865897 
0.0274649 -0.0585139 0.0810325 0.0163671 -0.0602863 0.0744986 0.00710846 -0.060299 0.0670665 
-0.00133881 -0.0595355 0.0592382 -0.00732062 -0.0575899 0.0514654 0.0886003 -0.0131029 0.0715852 
0.085675 -0.0204831 0.0758428 0.0807638 -0.0278869 0.0792058 0.0740958 -0.0353115 0.0817774 
0.0657892 -0.0419833 0.0827834 0.0562538 -0.0480906 0.0826153 0.0460513 -0.0527825 0.0805782 
0.0354265 -0.056578 0.0773574 0.0253753 -0.0587023 0.0725691 0.0156289 -0.0599387 0.0669481 
0.00747814 -0.0597129 0.0605 3.13106e-05 -0.058842 0.0536869 -0.00530308 -0.0570236 0.0468351 
0.0821012 -0.0163549 0.0631267 0.0790198 -0.023159 0.0666511 0.0742465 -0.0298914 0.0694029 
0.0679765 -0.0365604 0.0714712 0.0603442 -0.0424963 0.0722333 0.0516901 -0.0478823 0.0720157 
0.0425084 -0.0519912 0.0702493 0.0329926 -0.0552912 0.0675019 0.0239979 -0.0571221 0.0634363 
0.0152801 -0.0581726 0.0586703 0.00795159 -0.0579534 0.0531704 0.00123596 -0.057174 0.0473466 
-0.00364074 -0.0555787 0.0414313 0.187122 0.27081 0.014913 0.237228 0.253422 0.0134358 
0.272891 0.217456 0.0111677 0.295779 0.165058 0.00819996 0.294332 0.106438 0.00308325 
0.274636 0.0431518 -0.00364515 0.234079 -0.0102238 -0.0108489 0.18031 -0.0573226 -0.0183536 
0.121174 -0.0838485 -0.0227901 0.059186 -0.0994451 -0.0255966 0.00853932 -0.0975451 -0.0247518 
-0.0371039 -0.087926 -0.0222961 -0.064676 -0.0716763 -0.0185769 0.178292 0.22183 0.044933 
0.212238 0.206322 0.0471014 0.23468 0.177132 0.0482236 0.246945 0.135836 0.0484204 
0.241428 0.0894564 0.0461277 0.222575 0.0392636 0.0419678 0.188903 -0.0039616 0.0359264 
0.145846 -0.0427737 0.0286934 0.0990536 -0.0663652 0.0220316 0.0502763 -0.0818706 0.0156732 
0.00963037 -0.083361 0.0113144 -0.0274281 -0.0786683 0.0078378 -0.0508851 -0.0673109 0.00584162 
0.169766 0.178825 0.0665092 0.19329 0.164966 0.0714862 0.207188 0.140912 0.0752302 
0.212573 0.107838 0.0778837 0.20426 0.0708255 0.0775779 0.185675 0.030858 0.0750526 
0.156193 -0.00401724 0.0695438 0.119808 -0.0356674 0.0621455 0.0810564 -0.055856 0.0538054 
0.0410463 -0.0699556 0.0449651 0.00753463 -0.0729134 0.0371622 -0.0231102 -0.0709557 0.0298169 
-0.042953 -0.0629446 0.0240177 0.161328 0.13755 0.0856411 0.17609 0.125272 0.0931843 
0.182799 0.10588 0.0993277 0.182387 0.0801951 0.104233 0.171648 0.0517172 0.105672 
0.153164 0.0211449 0.104511 0.127091 -0.00590173 0.0993524 0.0962099 -0.0307155 0.0916622 
0.0642527 -0.0473656 0.0818022 0.0317237 -0.0596789 0.0707896 0.0045164 -0.0635475 0.0600519 
-0.0203431 -0.0636905 0.0494354 -0.0367168 -0.0585781 0.0403867 0.153063 0.104201 0.096302 
0.16245 0.0928243 0.105227 0.164856 0.0763022 0.112657 0.161086 0.0552287 0.118765 
0.149056 0.0322975 0.121143 0.130829 0.00797312 0.120725 0.107024 -0.0135246 0.115811 
0.0796873 -0.033232 0.108049 0.0521352 -0.0466711 0.0975083 0.0244688 -0.0567803 0.0854912 
0.00153299 -0.0602761 0.0733212 -0.0193157 -0.0608542 0.0610839 -0.0330733 -0.0570535 0.0503415 
0.144836 0.0726366 0.105057 0.149612 0.0620068 0.115098 0.148364 0.047951 0.123564 
0.141786 0.0308646 0.130637 0.128718 0.0128077 0.133774 0.110783 -0.00597692 0.133959 
0.088991 -0.0224386 0.129265 0.0647568 -0.0374289 0.121482 0.041072 -0.0477308 0.110449 
0.017679 -0.0555418 0.09769 -0.00144259 -0.058376 0.084426 -0.0186798 -0.0590145 0.0709392 
-0.0300132 -0.0561685 0.0588531 0.136319 0.0485224 0.106135 0.138411 0.038245 0.116128 
0.135233 0.0255941 0.124549 0.127393 0.0108434 0.13158 0.114215 -0.00423717 0.134802 
0.097034 -0.0195651 0.135168 0.0769932 -0.0326958 0.130793 0.055141 -0.0444347 0.123416 
0.0341947 -0.0522943 0.112757 0.0137296 -0.0580929 0.100354 -0.00282354 -0.0599148 0.0872538 
-0.0176509 -0.0599822 0.0738453 -0.0273501 -0.057271 0.0616423 0.127753 0.0256499 0.105934 
0.127483 0.0156592 0.115684 0.122663 0.00423616 0.12388 0.113817 -0.00845395 0.1307 
0.100684 -0.0208746 0.133896 0.0843348 -0.033093 0.134373 0.0660013 -0.0431768 0.130333 
0.046411 -0.0519086 0.123433 0.0280151 -0.0574418 0.113292 0.0102537 -0.0612757 0.101429 
-0.00393872 -0.0620268 0.088702 -0.0165565 -0.0614177 0.0755933 -0.0247531 -0.0587048 0.0634778 
0.119018 0.00986616 0.100237 0.117498 0.000184854 0.109039 0.112044 -0.0103812 0.11638 
0.10311 -0.02173 0.122428 0.0906222 -0.0324694 0.125238 0.0754696 -0.0427515 0.125619 
0.0588179 -0.0509302 0.121992 0.0412168 -0.0577766 0.115826 0.0248304 -0.0617984 0.106703 
0.00908925 -0.0643196 0.0960103 -0.00345284 -0.0642743 0.0843969 -0.0145836 -0.0630967 0.0723774 
-0.0218316 -0.0602486 0.0611097 0.110263 -0.005112 0.0939165 0.107621 -0.0144813 0.10169 
0.101648 -0.0242327 0.108104 0.0927284 -0.0343219 0.113316 0.0809545 -0.0434911 0.115699 
0.0670401 -0.0519703 0.115962 0.0520673 -0.0583736 0.112755 0.0364243 -0.0634621 0.107352 
0.021986 -0.0660651 0.099305 0.00818752 -0.0673477 0.0898533 -0.00278503 -0.0665372 0.0794379 
-0.0125109 -0.0648033 0.0685974 -0.0188732 -0.0618049 0.058264 0.101918 -0.0137699 0.084867 
0.0987985 -0.0226271 0.0914642 0.0928441 -0.0316078 0.0968493 0.0843816 -0.0406976 0.101162 
0.0735604 -0.0487737 0.103078 0.0609703 -0.0560895 0.103197 0.0475601 -0.0614441 0.100402 
0.0336305 -0.0655567 0.0957611 0.0207852 -0.067439 0.0888475 0.00851574 -0.0681366 0.0807265 
-0.0012942 -0.067023 0.0716844 -0.0100191 -0.0651103 0.062236 -0.015809 -0.0621531 0.0531056 
0.0935994 -0.0220155 0.0756395 0.0900447 -0.0303476 0.0810512 0.0841438 -0.0385605 0.0854007 
0.0761675 -0.046668 0.0888104 0.0663147 -0.053682 0.0902562 0.0550544 -0.059876 0.0902292 
0.0431991 -0.0642294 0.0878445 0.030967 -0.067417 0.0839666 0.0196915 -0.0686243 0.0781906 
0.00892417 -0.0687794 0.0714061 0.000250302 -0.0673928 0.0637487 -0.00749996 -0.0653261 0.0557063 
-0.0127378 -0.0624224 0.0477965 0.0862454 -0.0253432 0.0659107 0.082604 -0.0330092 0.0703295 
0.0769855 -0.0404634 0.07384 0.069618 -0.0477303 0.0765472 0.0607025 -0.053956 0.0776435 
0.0506259 -0.0594008 0.0775319 0.0400778 -0.0631886 0.0755015 0.0292311 -0.0659272 0.0722558 
0.0192059 -0.0669123 0.0674354 0.00961708 -0.066966 0.0617784 0.00181667 -0.0656612 0.0553406 
-0.00519474 -0.0637572 0.0485585 -0.010034 -0.0611194 0.0418058 0.184037 0.303143 0.0550655 
0.233578 0.289677 0.053616 0.268102 0.257416 0.0491557 0.289343 0.208528 0.0420319 
0.286609 0.153577 0.0315236 0.265894 0.0940787 0.0184769 0.225979 0.043065 0.00499186 
0.173905 -0.00257506 -0.00877081 0.11755 -0.0312077 -0.01843 0.0589193 -0.0508053 -0.0259093 
0.010823 -0.0553002 -0.0282034 -0.0326258 -0.0531321 -0.02821 -0.0594895 -0.0439177 -0.0255958 
0.179276 0.248123 0.0762805 0.212523 0.236091 0.0795124 0.233677 0.210234 0.080193 
0.244134 0.172148 0.0786168 0.23684 0.128732 0.0732382 0.216231 0.081319 0.0650079 
0.181814 0.0395519 0.0542664 0.138653 0.0013606 0.0419343 0.0927699 -0.0240496 0.030545 
0.0454412 -0.0426698 0.0196564 0.0062836 -0.0489362 0.0119013 -0.0292691 -0.0497524 0.00552858 
-0.0518349 -0.0437731 0.00185798 0.173742 0.199458 0.0928443 0.196517 0.188426 0.0997072 
0.20898 0.167091 0.104233 0.212321 0.136641 0.106692 0.201749 0.10192 0.10481 
0.180742 0.063994 0.0996707 0.149538 0.0300844 0.0904621 0.111875 -0.00128177 0.078676 
0.0728892 -0.0228948 0.0658567 0.0332003 -0.0393264 0.0524886 0.000527574 -0.045794 0.0410283 
-0.0290497 -0.0478656 0.0304096 -0.0479376 -0.0438781 0.0224859 0.167984 0.152633 0.108062 
0.181973 0.142475 0.118251 0.187099 0.125116 0.126248 0.184385 0.101388 0.132304 
0.170906 0.0745381 0.133445 0.149355 0.0453476 0.130898 0.120702 0.0188932 0.122872 
0.0875507 -0.0058283 0.111375 0.0544268 -0.0234778 0.0972132 0.0213175 -0.0373703 0.0816348 
-0.00558062 -0.0435844 0.0669775 -0.0297385 -0.0464111 0.0527266 -0.0451281 -0.0440555 0.0411379 
0.161191 0.114219 0.116079 0.16979 0.104229 0.128017 0.17053 0.0890435 0.137835 
0.164318 0.0692617 0.145777 0.149297 0.0474234 0.148546 0.127671 0.0240427 0.147435 
0.100853 0.00300698 0.140185 0.0707481 -0.0165435 0.129047 0.0415504 -0.0305107 0.114432 
0.012835 -0.0415117 0.0979695 -0.0100967 -0.0464292 0.081852 -0.0304769 -0.0486626 0.0658869 
-0.0432881 -0.0466393 0.0524402 0.154165 0.0776961 0.122475 0.158137 0.0677166 0.135806 
0.155155 0.0542988 0.147075 0.146021 0.0378393 0.156519 0.129766 0.0203686 0.160603 
0.10817 0.00213954 0.160666 0.0830268 -0.0139356 0.154101 0.0556378 -0.0286466 0.143338 
0.029931 -0.0389948 0.12847 0.00511765 -0.0470252 0.111421 -0.0142546 -0.0504111 0.0942347 
-0.0312265 -0.0517479 0.076987 -0.0416663 -0.0497646 0.0620887 0.145741 0.0495573 0.121228 
0.147021 0.0393477 0.134366 0.142138 0.0267954 0.145522 0.131804 0.0121706 0.154922 
0.115513 -0.00267472 0.15922 0.0947549 -0.0176855 0.159691 0.0713975 -0.0304262 0.153792 
0.0463938 -0.0417293 0.143859 0.0233545 -0.0492451 0.129794 0.00135878 -0.0547491 0.113533 
-0.0155816 -0.0564936 0.0968353 -0.0302917 -0.0565797 0.0799447 -0.0392084 -0.0540792 0.0650839 
0.137084 0.0228159 0.118707 0.135994 0.012336 0.131388 0.129515 0.000498847 0.142169 
0.118266 -0.0125391 0.151269 0.10214 -0.0250495 0.155597 0.0823546 -0.0371641 0.156347 
0.0608011 -0.0468415 0.151111 0.0381275 -0.0549752 0.142085 0.0176186 -0.0597898 0.128998 
-0.00174034 -0.0628413 0.113755 -0.0164368 -0.0629263 0.0978057 -0.0290762 -0.0617025 0.0815454 
-0.0366113 -0.058592 0.0669702 0.127556 0.00453011 0.110657 0.125236 -0.00593087 0.121965 
0.118246 -0.0171691 0.131513 0.107123 -0.0290951 0.139506 0.0919351 -0.0400785 0.143307 
0.0736975 -0.050355 0.143965 0.0541391 -0.0581183 0.139396 0.0337442 -0.0642898 0.131514 
0.0153993 -0.0674103 0.119968 -0.00185643 -0.06891 0.106475 -0.0149443 -0.0678949 0.0921486 
-0.0261933 -0.0657705 0.077455 -0.032921 -0.0621871 0.0640623 0.11793 -0.0127948 0.101978 
0.114509 -0.0232041 0.111808 0.107131 -0.0338566 0.120027 0.0962527 -0.0447244 0.126821 
0.0820907 -0.0542727 0.130032 0.0654658 -0.0628314 0.130557 0.0479242 -0.0688112 0.126653 
0.0298021 -0.0731577 0.119944 0.0135797 -0.0746985 0.110002 -0.00163354 -0.0747487 0.0983424 
-0.0131849 -0.0726973 0.0857384 -0.0231209 -0.0697186 0.0727179 -0.0291064 -0.0656778 0.0606095 
0.108511 -0.0224516 0.0909303 0.104665 -0.0323747 0.0991643 0.0974706 -0.0422707 0.105976 
0.0873137 -0.0521427 0.111529 0.0744506 -0.0606051 0.114097 0.0595577 -0.0680104 0.114426 
0.0439579 -0.0729587 0.111098 0.0279104 -0.0763507 0.105455 0.0135108 -0.0771779 0.0970685 
-1.3368e-05 -0.0766425 0.0872241 -0.0103827 -0.074252 0.0764479 -0.0193602 -0.0710431 0.0652606 
-0.0248913 -0.0669597 0.05469 0.0991052 -0.0316084 0.0797275 0.094879 -0.041017 0.0863582 
0.0879051 -0.0501452 0.0917575 0.0785006 -0.0590255 0.0960677 0.0669541 -0.0664249 0.0979886 
0.0538012 -0.0727136 0.0981175 0.0401383 -0.0766793 0.0953608 0.0261524 -0.0791736 0.0907765 
0.0135561 -0.0793437 0.0839416 0.00169793 -0.078279 0.075911 -0.00751244 -0.0755949 0.0669695 
-0.0155547 -0.0721964 0.057626 -0.0206501 -0.0680976 0.0486096 0.0907936 -0.0349041 0.0686303 
0.0865565 -0.0435379 0.0739823 0.0800256 -0.0518042 0.0782901 0.0714655 -0.0597454 0.0816742 
0.0611513 -0.0662988 0.0831258 0.0495215 -0.0718115 0.083128 0.0374858 -0.0752406 0.0808162 
0.0251931 -0.0773501 0.077039 0.0140601 -0.0773922 0.0714168 0.00354321 -0.0763361 0.0648144 
-0.00474273 -0.0738321 0.0573904 -0.0120444 -0.0706895 0.0496039 -0.0168128 -0.0669152 0.0419841 
0.184572 0.313451 0.0979596 0.230226 0.305284 0.0983999 0.260663 0.279663 0.0940702 
0.277641 0.2386 0.0855209 0.271784 0.191071 0.0721906 0.2488 0.138692 0.0552746 
0.20886 0.09213 0.0369394 0.158182 0.0492523 0.0177054 0.104867 0.0195011 0.00230477 
0.050153 -0.00327655 -0.0110594 0.00569979 -0.0133932 -0.0184661 -0.0342264 -0.0179241 -0.0232445 
-0.0589649 -0.0153513 -0.0240129 0.184446 0.259953 0.110108 0.21501 0.252706 0.116139 
0.232776 0.232467 0.118457 0.239222 0.200735 0.117493 0.228147 0.163099 0.111061 
0.203932 0.121033 0.100529 0.16747 0.0823477 0.0858166 0.123252 0.0458028 0.0684568 
0.0781433 0.019127 0.0514825 0.0325609 -0.00230583 0.0347131 -0.00418114 -0.0131667 0.0218845 
-0.037023 -0.0193636 0.0107947 -0.0573995 -0.0187803 0.00378855 0.182623 0.209924 0.121487 
0.203432 0.2028 0.132002 0.212829 0.185919 0.139394 0.21213 0.160407 0.144026 
0.19714 0.130086 0.142413 0.171432 0.0961584 0.136117 0.136724 0.0644737 0.12348 
0.0963164 0.0342097 0.106826 0.056624 0.0115519 0.0882946 0.0173117 -0.00706505 0.0687658 
-0.0137129 -0.0170291 0.0520016 -0.0410812 -0.0231757 0.036457 -0.0577473 -0.0233337 0.0250636 
0.18031 0.160898 0.132642 0.192907 0.153668 0.147322 0.195179 0.139559 0.159333 
0.188318 0.119367 0.168984 0.169791 0.0956154 0.171588 0.142514 0.0691948 0.168907 
0.10906 0.0442573 0.157897 0.0716945 0.0202592 0.141611 0.0366114 0.00189232 0.121527 
0.00274076 -0.0134829 0.099426 -0.0231436 -0.0220751 0.0791562 -0.0455047 -0.0276747 0.0596945 
-0.0586489 -0.0282125 0.0444493 0.1753 0.1187 0.137702 0.182794 0.110493 0.154461 
0.180807 0.097317 0.16879 0.170432 0.0797446 0.180968 0.150101 0.059935 0.185794 
0.122303 0.0384476 0.185104 0.0900867 0.018629 0.17522 0.0550722 -0.000132762 0.159512 
0.023277 -0.0142008 0.139065 -0.00680794 -0.0257753 0.116101 -0.0291234 -0.0319339 0.0943716 
-0.0480112 -0.0357031 0.0731878 -0.0586601 -0.0354335 0.0560744 0.169683 0.0780372 0.141389 
0.172775 0.0686591 0.159759 0.167173 0.056001 0.175888 0.153878 0.0404415 0.190033 
0.132134 0.0239826 0.196631 0.104051 0.00684908 0.197568 0.0730689 -0.00821713 0.188697 
0.0402498 -0.021974 0.173614 0.0114453 -0.0317415 0.153072 -0.0152266 -0.0393896 0.129628 
-0.0343268 -0.0428756 0.106901 -0.0500864 -0.0445255 0.0844888 -0.0584709 -0.0431814 0.0659534 
0.160915 0.0460203 0.137191 0.161372 0.0354744 0.154941 0.154022 0.0227373 0.170554 
0.139765 0.00806156 0.184276 0.118282 -0.00646699 0.190947 0.0913783 -0.0208851 0.192328 
0.0624173 -0.0326772 0.184502 0.0321532 -0.0428061 0.170846 0.00598438 -0.0491667 0.151793 
-0.0180089 -0.0535256 0.129874 -0.0349216 -0.0544985 0.108218 -0.0487104 -0.0539776 0.086678 
-0.055821 -0.0512805 0.0685085 0.151622 0.0154444 0.131677 0.149739 0.00373141 0.148437 
0.140953 -0.00918446 0.163149 0.126059 -0.0231645 0.176049 0.105116 -0.0359994 0.182508 
0.079635 -0.0479753 0.184137 0.0528268 -0.0567396 0.177362 0.0251776 -0.0634699 0.165265 
0.00158532 -0.0665727 0.147967 -0.0198519 -0.0677485 0.127907 -0.0347483 -0.0662348 0.107667 
-0.0467591 -0.0635346 0.0873485 -0.0527611 -0.059438 0.0698429 0.140457 -0.00512692 0.120637 
0.137338 -0.0172076 0.135255 0.128266 -0.0298896 0.14796 0.113928 -0.0431036 0.158974 
0.0945459 -0.0546698 0.164472 0.0713821 -0.0650002 0.165832 0.0472497 -0.0719046 0.160071 
0.022504 -0.0766391 0.149801 0.00137586 -0.0778708 0.134928 -0.0178305 -0.0772417 0.117612 
-0.0312559 -0.0742861 0.099822 -0.0421308 -0.0703041 0.0818236 -0.0476426 -0.0653444 0.0660051 
0.12908 -0.0245613 0.108969 0.12485 -0.0369188 0.121314 0.115623 -0.04932 0.131887 
0.101975 -0.06176 0.140895 0.0842713 -0.0721059 0.145345 0.0635257 -0.0808813 0.146377 
0.0421287 -0.0860584 0.141627 0.0203193 -0.0889568 0.133213 0.00164249 -0.0884749 0.120843 
-0.01537 -0.0861973 0.10637 -0.0273863 -0.0819185 0.0911477 -0.0371984 -0.0767568 0.0755946 
-0.0422901 -0.0709949 0.0615795 0.117817 -0.0346847 0.0955951 0.113199 -0.0464788 0.105717 
0.104407 -0.0580368 0.114274 0.0919228 -0.069386 0.121447 0.0761357 -0.0786088 0.124914 
0.0578711 -0.0862367 0.125603 0.0391029 -0.0904727 0.121652 0.0200156 -0.0925605 0.114763 
0.00353565 -0.0915203 0.104583 -0.0115593 -0.0888184 0.0926547 -0.0224251 -0.0842929 0.0799062 
-0.0314253 -0.0789628 0.066796 -0.0363144 -0.0731428 0.0547522 0.106562 -0.0442009 0.0821102 
0.101601 -0.0553767 0.0900133 0.093283 -0.0660548 0.0965611 0.0819943 -0.0762926 0.10191 
0.0681395 -0.0843986 0.104399 0.0523601 -0.0909057 0.104742 0.0362136 -0.0942518 0.101578 
0.0198347 -0.095596 0.0961916 0.00553488 -0.0940728 0.0881817 -0.00766042 -0.0910263 0.0787779 
-0.0173928 -0.0863243 0.0684973 -0.0255973 -0.0808918 0.0578298 -0.0302981 -0.0750622 0.0477681 
0.0967995 -0.0468595 0.0696209 0.0919057 -0.0570085 0.0758882 0.0842519 -0.0665851 0.0810123 
0.0741563 -0.0756554 0.0851251 0.0619896 -0.0827874 0.0869689 0.0482696 -0.0884657 0.0871109 
0.0342509 -0.091362 0.0845012 0.020043 -0.0924964 0.0801488 0.00751507 -0.0910911 0.0736816 
-0.0041205 -0.0883365 0.066091 -0.0128922 -0.0840672 0.0576914 -0.0204003 -0.0791297 0.048935 
-0.0249182 -0.0737863 0.0405385 0.186037 0.318111 0.141557 0.22695 0.315597 0.144364 
0.252545 0.297368 0.140761 0.264589 0.265237 0.131486 0.255138 0.226092 0.115993 
0.229565 0.181686 0.0958351 0.189429 0.140112 0.0730168 0.140068 0.100331 0.0485132 
0.0898624 0.0697145 0.0272382 0.0392074 0.0439671 0.00767822 -0.00132266 0.0284269 -0.00534712 
-0.0373857 0.01739 -0.0154895 -0.0596357 0.0134223 -0.0202244 0.190689 0.268075 0.144572 
0.218062 0.265947 0.153845 0.231902 0.251911 0.158335 0.233769 0.227342 0.158594 
0.218401 0.196207 0.15163 0.190105 0.160147 0.13925 0.151265 0.124959 0.120754 
0.105747 0.0903238 0.0983847 0.0613776 0.0625242 0.0756057 0.0176177 0.0383562 0.052609 
-0.016471 0.0229474 0.0342771 -0.046293 0.0114029 0.0180032 -0.0641474 0.00658548 0.00723559 
0.192763 0.217782 0.150721 0.211292 0.214844 0.16534 0.217205 0.202863 0.176135 
0.211955 0.182882 0.183545 0.191995 0.157502 0.182675 0.161001 0.128074 0.175596 
0.122332 0.0989366 0.1596 0.0788025 0.0699845 0.137955 0.0382824 0.0463794 0.113396 
-0.000639032 0.0256148 0.0872875 -0.0298081 0.0121576 0.0647972 -0.0546747 0.00192435 0.0439031 
-0.0687941 -0.00241029 0.0286949 0.194091 0.167414 0.157777 0.205136 0.163319 0.177418 
0.204228 0.152774 0.193999 0.192748 0.136522 0.207872 0.168579 0.116246 0.212391 
0.134894 0.0929508 0.209896 0.0960706 0.0697673 0.195871 0.0539929 0.0466543 0.174543 
0.0167474 0.0276424 0.148123 -0.017931 0.0108092 0.118998 -0.0426209 -0.000169314 0.0926819 
-0.0629042 -0.00856482 0.067605 -0.0734799 -0.012031 0.0484172 0.190942 0.121761 0.159798 
0.197252 0.115439 0.181842 0.192265 0.104445 0.201226 0.177285 0.0893172 0.218256 
0.151048 0.0717764 0.225566 0.116368 0.0524257 0.225584 0.0781414 0.0340177 0.212988 
0.037669 0.0162067 0.192404 0.00303218 0.0021473 0.165674 -0.0285045 -0.00991901 0.135681 
-0.0500467 -0.0172725 0.107914 -0.0671796 -0.0225467 0.0811292 -0.0753544 -0.0240247 0.0601025 
0.186787 0.0771685 0.160687 0.18898 0.0683792 0.184544 0.18053 0.0565121 0.20606 
0.162664 0.0419225 0.225504 0.13484 0.0265844 0.235018 0.0995472 0.010685 0.237084 
0.062087 -0.00321261 0.225796 0.0232544 -0.0158425 0.20605 -0.00892364 -0.0248684 0.17936 
-0.0375665 -0.0319798 0.148983 -0.0562604 -0.0354503 0.120299 -0.0705652 -0.0373144 0.0923633 
-0.0765963 -0.0365523 0.0699793 0.177564 0.0413111 0.153376 0.177196 0.0303253 0.176115 
0.167182 0.0173306 0.196628 0.148637 0.00255858 0.215171 0.121428 -0.0116323 0.224547 
0.0877204 -0.0253872 0.227046 0.0525693 -0.0360873 0.21719 0.0165041 -0.0448527 0.19951 
-0.0130601 -0.0498501 0.175065 -0.0391707 -0.0528457 0.147027 -0.0559491 -0.0528689 0.120063 
-0.0686104 -0.0515807 0.0935737 -0.0736526 -0.0485825 0.0719286 0.167497 0.0069094 0.144698 
0.164826 -0.00622744 0.165831 0.153566 -0.0203924 0.184818 0.134709 -0.0354668 0.201909 
0.108482 -0.0486863 0.210755 0.0767259 -0.0605146 0.213419 0.0441411 -0.068236 0.205016 
0.0110313 -0.0733564 0.189605 -0.0158933 -0.0744927 0.167772 -0.0395319 -0.0735125 0.142528 
-0.0545503 -0.070161 0.117723 -0.0657657 -0.0657634 0.0931134 -0.0700113 -0.0605298 0.0725566 
0.154477 -0.0158919 0.130505 0.150559 -0.0298076 0.148639 0.139266 -0.0441311 0.164744 
0.121447 -0.0588155 0.179056 0.0974896 -0.0710514 0.186431 0.0689273 -0.0814508 0.188601 
0.0397935 -0.0873826 0.181586 0.0102978 -0.0904849 0.168753 -0.0138251 -0.0895746 0.150324 
-0.0350939 -0.0865326 0.128921 -0.0488034 -0.0813875 0.107475 -0.059178 -0.0753146 0.0860104 
-0.0632955 -0.0688141 0.067689 0.141122 -0.0373749 0.115684 0.136077 -0.0519135 0.130662 
0.124887 -0.0662808 0.143731 0.108261 -0.0804964 0.155114 0.0867196 -0.0917473 0.160909 
0.0614918 -0.100774 0.162512 0.0359096 -0.105052 0.156877 0.010103 -0.106321 0.146657 
-0.0112 -0.10357 0.131721 -0.0301105 -0.0986838 0.11428 -0.0425624 -0.0919247 0.0963285 
-0.0521649 -0.0843395 0.0781525 -0.0562302 -0.0766822 0.0621968 0.127819 -0.0478284 0.0999014 
0.122416 -0.0616999 0.111976 0.111935 -0.0751114 0.122361 0.0969618 -0.0881161 0.131249 
0.0780246 -0.098195 0.13568 0.0561142 -0.10608 0.136766 0.0339265 -0.109525 0.132169 
0.0115633 -0.110159 0.123972 -0.00713196 -0.107043 0.111917 -0.0238787 -0.101935 0.0978117 
-0.035225 -0.0950547 0.0830299 -0.0441887 -0.087392 0.0679495 -0.0483377 -0.0796787 0.054424 
0.114519 -0.0575625 0.0840556 0.108808 -0.0706827 0.0932449 0.0990753 -0.0830733 0.100966 
0.0857856 -0.0948187 0.10739 0.0694648 -0.103714 0.11047 0.0508708 -0.110471 0.111043 
0.0320674 -0.113138 0.107461 0.0131316 -0.113215 0.101249 -0.0029698 -0.10983 0.0920344 
-0.0175654 -0.104606 0.0812247 -0.027816 -0.0977015 0.0695909 -0.0361497 -0.090055 0.0575935 
-0.0403911 -0.0823574 0.0465024 0.103179 -0.0594288 0.0701681 0.0976131 -0.0712334 0.0773462 
0.0887822 -0.0822481 0.0832915 0.0770634 -0.092564 0.0881462 0.0629279 -0.100339 0.0903917 
0.0469799 -0.106208 0.0906801 0.0308511 -0.108527 0.0877682 0.0146078 -0.108597 0.0828295 
0.000611196 -0.105615 0.0755063 -0.0121918 -0.101011 0.0669164 -0.0214493 -0.0948316 0.057544 
-0.0291425 -0.0879565 0.0478264 -0.0333636 -0.080933 0.0386765 0.193465 0.309909 0.167532 
0.228314 0.314199 0.17337 0.247414 0.305185 0.172365 0.252581 0.284402 0.165306 
0.237282 0.255394 0.15068 0.206632 0.220218 0.130378 0.164013 0.183841 0.105378 
0.113814 0.146704 0.0774022 0.0655332 0.114911 0.0514482 0.0182711 0.0859572 0.0265682 
-0.0179212 0.0654419 0.00846669 -0.0492298 0.0486494 -0.00664421 -0.0676361 0.039054 -0.0152586 
0.203685 0.267083 0.16605 0.227345 0.271495 0.179117 0.235981 0.26566 0.187249 
0.231329 0.250759 0.191017 0.208966 0.227963 0.185783 0.17332 0.199246 0.173797 
0.129203 0.167689 0.152921 0.079721 0.134333 0.126414 0.0348665 0.104642 0.0983122 
-0.00752974 0.0768979 0.069364 -0.0382548 0.0567067 0.0458186 -0.0638307 0.0398476 0.0246568 
-0.0776681 0.0299949 0.0103406 0.210734 0.218747 0.169469 0.227106 0.221261 0.188836 
0.228533 0.215917 0.204574 0.216741 0.203619 0.217101 0.18861 0.184781 0.219078 
0.148225 0.161038 0.213142 0.101979 0.134574 0.194504 0.0520204 0.106386 0.167823 
0.00929097 0.0810863 0.136942 -0.0295983 0.0573205 0.103829 -0.0559274 0.0399985 0.0755898 
-0.0767152 0.0255196 0.0495001 -0.0865768 0.0171715 0.0307652 0.216865 0.168817 0.174306 
0.227078 0.168848 0.199705 0.222238 0.163215 0.222604 0.204082 0.152572 0.243292 
0.170558 0.13704 0.251849 0.125509 0.117841 0.251307 0.0769508 0.0965493 0.234363 
0.0261705 0.0739314 0.207032 -0.0148108 0.0536849 0.173187 -0.0505864 0.0346984 0.135883 
-0.0728297 0.0209824 0.103166 -0.0891029 0.00959176 0.072474 -0.0951603 0.00325854 0.0496919 
0.215928 0.119972 0.174199 0.222055 0.11585 0.202336 0.213467 0.107566 0.228546 
0.191863 0.0955994 0.253051 0.155867 0.0809558 0.264898 0.109079 0.0643042 0.267252 
0.0602303 0.0475997 0.251729 0.0100765 0.0308616 0.224885 -0.0290428 0.0168751 0.19044 
-0.0623002 0.0043502 0.151957 -0.0817356 -0.00405194 0.117674 -0.095073 -0.0106352 0.0852428 
-0.0987644 -0.0136122 0.0607045 0.2134 0.0713723 0.172981 0.215908 0.0627217 0.203114 
0.20414 0.0512537 0.231767 0.179743 0.0372934 0.259111 0.141933 0.022994 0.273509 
0.094064 0.00844041 0.278198 0.0453791 -0.00380802 0.264035 -0.00382232 -0.0145965 0.237932 
-0.0410542 -0.0220518 0.203418 -0.0719273 -0.0277364 0.164436 -0.0888422 -0.0304404 0.12924 
-0.0995992 -0.0318296 0.0957154 -0.101248 -0.0311484 0.0699364 0.202687 0.031379 0.162804 
0.202567 0.0189214 0.191021 0.189472 0.00460224 0.21771 0.164901 -0.0113638 0.243048 
0.128535 -0.0258073 0.25662 0.0833222 -0.039109 0.261369 0.0378079 -0.0481083 0.249102 
-0.00789727 -0.0543828 0.22606 -0.0423736 -0.0566284 0.194938 -0.0708848 -0.0567337 0.159524 
-0.0863583 -0.0545785 0.126935 -0.0960799 -0.0514261 0.0955926 -0.0972684 -0.0473963 0.0710041 
0.19061 -0.00717982 0.151135 0.188026 -0.0233241 0.176783 0.173915 -0.0404391 0.200773 
0.149606 -0.0584128 0.223297 0.115226 -0.0730819 0.235481 0.0732926 -0.0852726 0.239911 
0.03145 -0.091224 0.229631 -0.0103349 -0.0932239 0.210035 -0.0419111 -0.09048 0.182881 
-0.068064 -0.0852161 0.151713 -0.0822759 -0.0783415 0.122317 -0.0912198 -0.0707563 0.0937038 
-0.0922114 -0.0634294 0.0707111 0.174166 -0.0318651 0.13408 0.170071 -0.0492292 0.155597 
0.15622 -0.0669106 0.175386 0.133739 -0.0848728 0.193647 0.103002 -0.0988564 0.203426 
0.0660734 -0.109856 0.206843 0.0292812 -0.114145 0.198458 -0.00742468 -0.114185 0.1826 
-0.0355907 -0.10928 0.160266 -0.0592201 -0.101748 0.134493 -0.0725432 -0.0927434 0.109604 
-0.0813194 -0.0830885 0.0851056 -0.0828876 -0.0740828 0.064927 0.157225 -0.0549738 0.116412 
0.151727 -0.0732775 0.133621 0.138282 -0.091272 0.149039 0.117806 -0.108993 0.162873 
0.0909006 -0.122188 0.17013 0.0591736 -0.131987 0.172455 0.0275885 -0.134772 0.165956 
-0.00390676 -0.133114 0.153869 -0.0286048 -0.126369 0.136452 -0.0496917 -0.116922 0.116204 
-0.0621683 -0.106081 0.0959713 -0.0708462 -0.0946255 0.075745 -0.073079 -0.0841249 0.0585189 
0.140726 -0.0648826 0.0987969 0.134762 -0.0821223 0.11237 0.122359 -0.0987177 0.124309 
0.104261 -0.114743 0.134804 0.0810978 -0.126495 0.140178 0.0541349 -0.135041 0.141713 