# vtk DataFile Version 2.0
vtk output
ASCII
DATASET RECTILINEAR_GRID
DIMENSIONS 13 13 13
X_COORDINATES 13 float
-2.5 -2.29167 -2.08333 -1.875 -1.66667 -1.45833 -1.25 -1.04167 -0.833333 
-0.625 -0.416667 -0.208333 0 
Y_COORDINATES 13 float
-5 -4.79167 -4.58333 -4.375 -4.16667 -3.95833 -3.75 -3.54167 -3.33333 
-3.125 -2.91667 -2.70833 -2.5 
Z_COORDINATES 13 float
-5 -4.79167 -4.58333 -4.375 -4.16667 -3.95833 -3.75 -3.54167 -3.33333 
-3.125 -2.91667 -2.70833 -2.5 
POINT_DATA 2197
VECTORS grad float
0.0119897 -0.175116 -0.0973233 -0.0226936 -0.187229 -0.0969756 -0.0576633 -0.18301 -0.0913186 
-0.0927158 -0.174063 -0.0841246 -0.118595 -0.153867 -0.0729671 -0.142411 -0.13114 -0.0609177 
-0.155051 -0.106865 -0.0480841 -0.165827 -0.0823326 -0.0351199 -0.169663 -0.0618016 -0.0240434 
-0.172711 -0.0417253 -0.0131815 -0.173334 -0.027097 -0.0062323 -0.173798 -0.0128239 0.000461691 
-0.173217 -0.00397846 0.00148788 0.000821518 -0.149822 -0.0826141 -0.0263262 -0.159977 -0.0817105 
-0.0537362 -0.157696 -0.077148 -0.0812219 -0.151816 -0.0715264 -0.102563 -0.136745 -0.0629383 
-0.122522 -0.119606 -0.0536827 -0.134669 -0.100121 -0.0435076 -0.145514 -0.0802448 -0.0331791 
-0.151237 -0.0626301 -0.0241229 -0.156378 -0.0452724 -0.0152113 -0.159606 -0.0318729 -0.00978895 
-0.16271 -0.0187315 -0.00459417 -0.164679 -0.00987392 -0.00516162 -0.00886249 -0.125424 -0.0721165 
-0.0300826 -0.13406 -0.0710699 -0.0515323 -0.133288 -0.0675107 -0.0730483 -0.129793 -0.0632241 
-0.0905566 -0.118856 -0.0566983 -0.107163 -0.106245 -0.0496688 -0.118464 -0.0908626 -0.0416775 
-0.128881 -0.0750181 -0.0335258 -0.135681 -0.0600479 -0.0262153 -0.142069 -0.045177 -0.0190003 
-0.147077 -0.0328332 -0.014914 -0.151996 -0.0206541 -0.0110317 -0.155784 -0.0114548 -0.0128939 
-0.0172336 -0.10182 -0.0653445 -0.0339485 -0.109322 -0.0645202 -0.0508528 -0.10968 -0.0618834 
-0.0678118 -0.107969 -0.0587219 -0.0821111 -0.10029 -0.05381 -0.095812 -0.0912685 -0.0485042 
-0.105955 -0.0793804 -0.0422769 -0.115504 -0.0670146 -0.035896 -0.122664 -0.0544484 -0.0300883 
-0.129552 -0.0418594 -0.0243456 -0.135609 -0.0304182 -0.0214265 -0.141613 -0.0190517 -0.0186915 
-0.146572 -0.00921885 -0.0215841 -0.0246011 -0.0808707 -0.0610934 -0.0377992 -0.0874505 -0.0606733 
-0.051139 -0.0885514 -0.0589218 -0.0645198 -0.0880663 -0.0567848 -0.0761369 -0.0827593 -0.0532443 
-0.087357 -0.0763672 -0.049388 -0.0962194 -0.0671427 -0.0446433 -0.104689 -0.0574461 -0.0397505 
-0.111637 -0.046773 -0.0351929 -0.118411 -0.035989 -0.0306735 -0.124734 -0.0252065 -0.0286014 
-0.131028 -0.0144241 -0.026689 -0.136316 -0.00386574 -0.0300058 -0.0312157 -0.0619136 -0.058733 
-0.0416383 -0.0677279 -0.0588536 -0.0521494 -0.0692833 -0.0579595 -0.0626862 -0.0696059 -0.0567716 
-0.072016 -0.0660056 -0.0544207 -0.0810743 -0.0615227 -0.0518081 -0.0885653 -0.0543384 -0.0483348 
-0.095795 -0.0467038 -0.0447181 -0.102102 -0.0375407 -0.0412214 -0.108304 -0.0282039 -0.0377383 
-0.114304 -0.0178973 -0.0362732 -0.120291 -0.00752749 -0.0349398 -0.125276 0.00382526 -0.0382263 
-0.0369273 -0.0455492 -0.0577164 -0.0451724 -0.0506229 -0.0583977 -0.0534457 -0.0523236 -0.0582825 
-0.0617271 -0.0530478 -0.0579367 -0.0691331 -0.0505318 -0.0565954 -0.0763421 -0.0472868 -0.05503 
-0.0824593 -0.0415083 -0.0526073 -0.0883945 -0.0353077 -0.0500418 -0.0937379 -0.0272496 -0.0473682 
-0.0990139 -0.0189804 -0.0446822 -0.104167 -0.00907984 -0.0435099 -0.109311 0.000927108 -0.0424363 
-0.113411 0.0127556 -0.045165 -0.0420671 -0.0308271 -0.057551 -0.0485135 -0.0351757 -0.0588056 
-0.054923 -0.0368258 -0.0594196 -0.061322 -0.0376947 -0.0598481 -0.0670342 -0.0358687 -0.0594022 
-0.072592 -0.0334364 -0.0587596 -0.0773339 -0.0286621 -0.0572478 -0.0819398 -0.0234974 -0.055591 
-0.086115 -0.0162878 -0.0535899 -0.0902412 -0.00884583 -0.0515495 -0.0942144 0.000692931 -0.0504709 
-0.0981776 0.0103684 -0.0494551 -0.101025 0.022471 -0.0512921 -0.0461827 -0.0183336 -0.0579556 
-0.051209 -0.0219079 -0.0596809 -0.0561317 -0.0232819 -0.0608722 -0.0610244 -0.024019 -0.061909 
-0.065315 -0.0224885 -0.062155 -0.0694702 -0.0204479 -0.062223 -0.0729306 -0.0162801 -0.0614001 
-0.0762752 -0.0117579 -0.0604287 -0.0792144 -0.00517563 -0.0588916 -0.0821075 0.00164068 -0.0572901 
-0.0847496 0.0107239 -0.0561228 -0.0873753 0.019955 -0.0549838 -0.0888427 0.0318246 -0.0557823 
-0.0497544 -0.00702406 -0.0586632 -0.0535616 -0.00979792 -0.0608044 -0.0571976 -0.0107761 -0.0624925 
-0.060784 -0.0112344 -0.0640494 -0.0637975 -0.0097898 -0.064879 -0.0666821 -0.00791706 -0.065545 
-0.0689109 -0.00414473 -0.0652932 -0.0710303 -5.57974e-05 -0.0648885 -0.0726975 0.0060165 -0.0637045 
-0.0743133 0.0123142 -0.062432 -0.0755438 0.0208921 -0.0610791 -0.0767492 0.0296187 -0.059721 
-0.0767695 0.0409862 -0.0594028 -0.0521334 0.00231921 -0.059452 -0.0549838 0.000389571 -0.0618293 
-0.057603 -5.94983e-05 -0.0638083 -0.0601553 -7.99814e-05 -0.065672 -0.0621293 0.00149501 -0.0668559 
-0.0639733 0.003429 -0.0678869 -0.0651499 0.00701401 -0.0679864 -0.0662153 0.0108742 -0.0679307 
-0.0667517 0.0165263 -0.0669405 -0.0672279 0.0223821 -0.0658443 -0.0672001 0.0303353 -0.0642736 
-0.0671395 0.0384253 -0.0626719 -0.0659177 0.0489199 -0.0614196 -0.0539863 0.010795 -0.0602768 
-0.0559955 0.00972891 -0.0628107 -0.0577169 0.00986767 -0.0649898 -0.0593551 0.0103552 -0.0670661 
-0.0603946 0.012156 -0.0685031 -0.0612994 0.0142524 -0.0697964 -0.0615031 0.0177419 -0.0701502 
-0.0615898 0.0214636 -0.0703474 -0.0610577 0.0267351 -0.0694809 -0.0604552 0.0321828 -0.0684935 
-0.0592367 0.0394587 -0.0666907 -0.0579781 0.0468539 -0.0648347 -0.0556046 0.0563119 -0.0627288 
-0.0545357 0.0174435 -0.0609002 -0.0559096 0.0172444 -0.0633891 -0.0569556 0.018018 -0.0655551 
-0.0579067 0.0190732 -0.0676275 -0.0582423 0.0211866 -0.0691017 -0.0584395 0.0235381 -0.0704411 
-0.0579071 0.0270146 -0.0708632 -0.0572532 0.0306786 -0.0711323 -0.0559129 0.0355986 -0.0702887 
-0.0544946 0.0406613 -0.0693187 -0.0523865 0.0472059 -0.067344 -0.0502334 0.0538471 -0.0653037 
-0.0470243 0.0621462 -0.0626483 0.0116922 -0.151446 -0.119287 -0.0193494 -0.162152 -0.118963 
-0.0505956 -0.159502 -0.112116 -0.0819009 -0.152985 -0.10338 -0.105592 -0.136821 -0.0894864 
-0.12757 -0.118485 -0.0744321 -0.140254 -0.0981175 -0.0577827 -0.15139 -0.0774108 -0.0408675 
-0.156959 -0.0595847 -0.0255407 -0.161895 -0.0420859 -0.0103944 -0.165381 -0.0293055 0.000504727 
-0.168772 -0.0168327 0.0111269 -0.171614 -0.0097487 0.0148481 0.00134065 -0.132586 -0.101078 
-0.0232895 -0.142077 -0.100149 -0.0480739 -0.141099 -0.094605 -0.072903 -0.137091 -0.087725 
-0.0925424 -0.125049 -0.0768723 -0.111014 -0.1112 -0.0651257 -0.123027 -0.0948153 -0.0516727 
-0.133963 -0.0780079 -0.0379354 -0.141059 -0.0627304 -0.0250729 -0.14772 -0.0476268 -0.0123098 
-0.153664 -0.0359367 -0.00327882 -0.159562 -0.0244692 0.00550878 -0.165127 -0.0172455 0.00724149 
-0.00802642 -0.113309 -0.0877371 -0.0275207 -0.121812 -0.0866729 -0.0471195 -0.12217 -0.0823491 
-0.0667484 -0.12017 -0.0770818 -0.0829226 -0.111546 -0.0687268 -0.0983195 -0.101432 -0.059677 
-0.109384 -0.0885225 -0.0489103 -0.119727 -0.0751476 -0.0378576 -0.127636 -0.0621707 -0.0271778 
-0.135269 -0.049239 -0.0165403 -0.14285 -0.0383851 -0.00919108 -0.150427 -0.0276667 -0.00205631 
-0.157897 -0.0197869 -0.00197691 -0.0165226 -0.0936626 -0.0787019 -0.0320094 -0.101377 -0.0779192 
-0.0475514 -0.102774 -0.0747422 -0.0631093 -0.102342 -0.0708722 -0.0763368 -0.0965116 -0.0645341 
-0.08904 -0.0894662 -0.0576407 -0.0989129 -0.0795839 -0.0491093 -0.108314 -0.0692289 -0.0403048 
-0.116404 -0.0583331 -0.0315585 -0.124345 -0.0473759 -0.0228188 -0.132834 -0.0371334 -0.0169864 
-0.141359 -0.0269375 -0.0113437 -0.150008 -0.0179447 -0.0126212 -0.0242489 -0.075618 -0.0727096 
-0.0365616 -0.082623 -0.0724293 -0.0488775 -0.0846895 -0.070366 -0.0611942 -0.0853264 -0.0677866 
-0.071926 -0.0815351 -0.063196 -0.0823013 -0.0767475 -0.058153 -0.0908616 -0.0691708 -0.0515478 
-0.0991195 -0.0611292 -0.0446822 -0.106815 -0.0518385 -0.037604 -0.114446 -0.0424058 -0.0305017 
-0.122968 -0.0325129 -0.025842 -0.131547 -0.02259 -0.0213415 -0.140316 -0.0123465 -0.0232476 
-0.0313978 -0.0587746 -0.0689995 -0.0411615 -0.0651293 -0.0693874 -0.0508742 -0.0675883 -0.0684129 
-0.0605721 -0.0689197 -0.067044 -0.0691465 -0.0666023 -0.0639989 -0.0774681 -0.0634639 -0.0605767 
-0.0846253 -0.0576516 -0.0556659 -0.0915885 -0.0513936 -0.0505071 -0.0984575 -0.0433509 -0.0448982 
-0.105316 -0.0351055 -0.039238 -0.113213 -0.0253658 -0.0354926 -0.121177 -0.0155288 -0.0318721 
-0.129272 -0.00393129 -0.0338606 -0.0376866 -0.043839 -0.0669471 -0.0454277 -0.0494822 -0.0680317 
-0.0530577 -0.0520008 -0.0680537 -0.0606555 -0.0536148 -0.0677682 -0.0673922 -0.0521814 -0.0660537 
-0.0739352 -0.0500622 -0.0640177 -0.0796714 -0.0454204 -0.060542 -0.0852733 -0.0403581 -0.0568265 
-0.0909701 -0.0331901 -0.0524171 -0.0966778 -0.0257828 -0.0479288 -0.103347 -0.0161822 -0.0447448 
-0.110079 -0.00643856 -0.0416457 -0.116764 0.00604446 -0.043091 -0.0434306 -0.0301116 -0.0659447 
-0.0494824 -0.0350048 -0.0677438 -0.0553593 -0.0373719 -0.0687041 -0.0611858 -0.0390078 -0.0694215 
-0.0662873 -0.0380847 -0.0689015 -0.0712257 -0.0365858 -0.068103 -0.0755297 -0.0327382 -0.0658981 
-0.0797281 -0.0284993 -0.0634588 -0.0840337 -0.0219695 -0.0600783 -0.0883515 -0.0151795 -0.0565908 
-0.0934119 -0.00570884 -0.0537445 -0.0985207 0.00393662 -0.05094 -0.10333 0.0170086 -0.0514457 
-0.0480526 -0.0181902 -0.0656459 -0.0527583 -0.0222296 -0.0680364 -0.0572242 -0.0241916 -0.0697457 
-0.0616206 -0.0255523 -0.0712578 -0.0653375 -0.0247446 -0.0716728 -0.0689015 -0.0234489 -0.0718408 
-0.0718654 -0.0200134 -0.0706229 -0.0747294 -0.0162212 -0.069174 -0.0775873 -0.0101435 -0.0665611 
-0.0804445 -0.00380612 -0.0638161 -0.0837614 0.00535044 -0.061094 -0.0871082 0.0146909 -0.0583734 
-0.0899459 0.027633 -0.0577966 -0.0520785 -0.00722821 -0.0657211 -0.0556205 -0.0103587 -0.0686372 
-0.0588569 -0.0117809 -0.0709951 -0.0620049 -0.0127086 -0.0731914 -0.0644702 -0.0118064 -0.0744034 
-0.066782 -0.0104925 -0.075394 -0.0684548 -0.00726578 -0.0750122 -0.070021 -0.00372025 -0.0744018 
-0.0714012 0.00200423 -0.072418 -0.0727603 0.00797632 -0.0702781 -0.0742622 0.016721 -0.0675668 
-0.0757734 0.0256465 -0.0648183 -0.0765886 0.0380771 -0.0630828 -0.0547278 0.00201333 -0.0658903 
-0.0573494 -0.000141552 -0.0691143 -0.0596088 -0.000880493 -0.0718624 -0.0617634 -0.00120956 -0.0744728 
-0.0632096 -2.34053e-06 -0.0761828 -0.0644963 0.00155054 -0.0776902 -0.0650755 0.00475731 -0.0778486 
-0.0655367 0.00823972 -0.0777822 -0.0656312 0.0136636 -0.0762054 -0.0656841 0.0193081 -0.0744569 
-0.0656176 0.0274502 -0.0717027 -0.0655434 0.0357552 -0.0688827 -0.0646825 0.0471775 -0.0662322 
-0.0567699 0.0104958 -0.066101 -0.0585784 0.00934604 -0.0695367 -0.0599722 0.00935362 -0.0725611 
-0.0612459 0.00969622 -0.0754665 -0.0617753 0.0113014 -0.0775425 -0.0621373 0.0131906 -0.0794319 
-0.0617101 0.0164608 -0.0799998 -0.0611513 0.019961 -0.0803475 -0.0600448 0.0251075 -0.0790798 
-0.058876 0.030441 -0.0776285 -0.0573501 0.0378964 -0.0748074 -0.055801 0.0454902 -0.071897 
-0.0534167 0.055685 -0.0684388 -0.0573006 0.0172801 -0.0660679 -0.0584919 0.0171321 -0.069475 
-0.0592356 0.0179187 -0.0725126 -0.0598497 0.0189757 -0.0754432 -0.0596988 0.0210409 -0.0776052 
-0.0593758 0.0233329 -0.0795942 -0.0582092 0.026717 -0.0803161 -0.056902 0.0302831 -0.0808268 
-0.0549207 0.0351458 -0.0797095 -0.0528628 0.0401559 -0.0784072 -0.0502886 0.0468367 -0.0755582 
-0.0476807 0.0536265 -0.0726084 -0.0442334 0.0624514 -0.0686962 0.0118483 -0.127788 -0.132283 
-0.0152943 -0.137374 -0.131654 -0.0424506 -0.136308 -0.123902 -0.0696108 -0.132159 -0.114087 
-0.0905738 -0.119904 -0.0982511 -0.110143 -0.105825 -0.0810599 -0.122304 -0.0893714 -0.0612534 
-0.13323 -0.0725216 -0.0410112 -0.140206 -0.0575058 -0.0214821 -0.146734 -0.0426984 -0.00203415 
-0.153283 -0.0318887 0.0134644 -0.159834 -0.0213396 0.0287054 -0.167014 -0.016256 0.0361933 
0.00216147 -0.114806 -0.112999 -0.019674 -0.123837 -0.111876 -0.0414421 -0.124274 -0.105557 
-0.0631907 -0.122224 -0.0977343 -0.0805994 -0.1133 -0.0851108 -0.0970315 -0.102828 -0.0714072 
-0.108364 -0.0897129 -0.0550033 -0.118846 -0.0761567 -0.0381494 -0.126995 -0.0634231 -0.0212548 
-0.13488 -0.050783 -0.00435561 -0.143769 -0.0409934 0.00917363 -0.152724 -0.0313897 0.0224831 
-0.162948 -0.0260698 0.0278342 -0.00703798 -0.100388 -0.0986525 -0.0245402 -0.108924 -0.0975198 
-0.0419067 -0.110592 -0.0925981 -0.0592339 -0.110271 -0.0865796 -0.0735674 -0.104185 -0.0767016 
-0.0872273 -0.0968004 -0.0659553 -0.0975263 -0.0866497 -0.052529 -0.107265 -0.0760378 -0.038656 
-0.115958 -0.0653449 -0.0242066 -0.124531 -0.0546427 -0.00969183 -0.134918 -0.0455264 0.00196544 
-0.145423 -0.0365136 0.0134363 -0.157736 -0.0302148 0.0169483 -0.0158063 -0.0846993 -0.0886731 
-0.029837 -0.0927938 -0.0879602 -0.0436745 -0.0954505 -0.0844034 -0.0574561 -0.0965331 -0.0800234 
-0.0691383 -0.0928485 -0.0724776 -0.0803482 -0.0880913 -0.0642194 -0.0894333 -0.0805747 -0.0533947 
-0.0981643 -0.0725982 -0.0421423 -0.106842 -0.0637321 -0.0299708 -0.115513 -0.0547649 -0.017695 
-0.126654 -0.0460153 -0.00782356 -0.137956 -0.0372798 0.00189103 -0.15151 -0.0293452 0.00382734 
-0.0240575 -0.0696237 -0.0819209 -0.0352976 -0.0772261 -0.0818703 -0.046292 -0.0804998 -0.0796685 
-0.0572153 -0.0825204 -0.0768439 -0.066627 -0.0805808 -0.0713918 -0.0756987 -0.0777501 -0.0653485 
-0.0834537 -0.072223 -0.0568627 -0.0909893 -0.0662465 -0.0479698 -0.0990687 -0.0587402 -0.037874 
-0.10721 -0.0510601 -0.0276416 -0.118099 -0.0423763 -0.0192676 -0.129166 -0.033627 -0.0110149 
-0.142567 -0.0238547 -0.00989013 -0.0319208 -0.0550078 -0.0775892 -0.0408811 -0.0620805 -0.0783828 
-0.0495468 -0.0656921 -0.0775284 -0.0581272 -0.0683018 -0.0761969 -0.0655541 -0.0676143 -0.0726597 
-0.0727213 -0.0661849 -0.0686263 -0.0790591 -0.0621638 -0.0622823 -0.0852587 -0.0577107 -0.0555531 
-0.0923027 -0.051214 -0.0473814 -0.0994428 -0.0444852 -0.0390458 -0.109325 -0.0356416 -0.031953 
-0.119386 -0.0266601 -0.0249412 -0.131588 -0.0148986 -0.0240549 -0.0389648 -0.041582 -0.0750366 
-0.0460954 -0.047966 -0.0767005 -0.0528793 -0.0515406 -0.0770905 -0.0595627 -0.0543018 -0.0771118 
-0.0652808 -0.0542838 -0.0752585 -0.0707817 -0.0536405 -0.0729835 -0.0756722 -0.0505429 -0.068511 
-0.0804611 -0.0470362 -0.0636722 -0.0861013 -0.0411801 -0.0571567 -0.0918382 -0.0350569 -0.0504507 
-0.100015 -0.0260812 -0.0442901 -0.10835 -0.0169194 -0.0381652 -0.118398 -0.00382005 -0.0368525 
-0.04549 -0.0289101 -0.0736108 -0.0510759 -0.0345047 -0.0761613 -0.0562609 -0.0378047 -0.0777307 
-0.0613298 -0.0404404 -0.079016 -0.065514 -0.0407229 -0.0787003 -0.0694992 -0.040476 -0.0780243 
-0.0729235 -0.037933 -0.0752521 -0.0762544 -0.0350073 -0.0721305 -0.0802573 -0.0295579 -0.0671016 
-0.0843365 -0.0238216 -0.061856 -0.0903643 -0.0147313 -0.0564068 -0.096519 -0.00542215 -0.0509443 
-0.103808 0.00860264 -0.0487842 -0.0507627 -0.017574 -0.0729018 -0.0551044 -0.0222095 -0.076182 
-0.0589896 -0.0249393 -0.0786927 -0.0627427 -0.0271174 -0.0809806 -0.0656174 -0.0272878 -0.0818761 
-0.0682945 -0.0270065 -0.0824584 -0.0703452 -0.0246304 -0.0810299 -0.0722915 -0.0219052 -0.0792663 
-0.0746225 -0.0166923 -0.075403 -0.0769971 -0.0111966 -0.071301 -0.0807785 -0.00226114 -0.0663211 
-0.0846516 0.0068987 -0.0612839 -0.0891574 0.0208797 -0.0581567 -0.0553699 -0.00694768 -0.0725737 
-0.058627 -0.0105337 -0.0765002 -0.0613714 -0.0125363 -0.0798257 -0.0639675 -0.0140805 -0.0829773 
-0.0656519 -0.0139195 -0.0849108 -0.0671311 -0.0133748 -0.0865702 -0.0678574 -0.0109597 -0.086296 
-0.0684581 -0.0082329 -0.0856995 -0.0690987 -0.0031661 -0.0828312 -0.0697439 0.00216661 -0.0797048 
-0.071227 0.0108041 -0.0750655 -0.0727647 0.0196571 -0.0703276 -0.074475 0.0330795 -0.0661696 
-0.0583646 0.00223119 -0.0722721 -0.0607528 -0.000212285 -0.0765738 -0.0625816 -0.00133109 -0.0803844 
-0.0642486 -0.00206644 -0.084053 -0.0649626 -0.00136594 -0.08663 -0.0654622 -0.00034238 -0.0889614 
-0.0650818 0.00228545 -0.0894386 -0.0645548 0.00518065 -0.0896067 -0.0637643 0.0101215 -0.0874199 
-0.0629438 0.0152948 -0.0849654 -0.0625067 0.0233749 -0.0805711 -0.0620947 0.0316445 -0.0760502 
-0.0615703 0.0438823 -0.0711557 -0.0606479 0.0107715 -0.0719824 -0.0622623 0.00951167 -0.0765395 
-0.0632749 0.00934574 -0.0806898 -0.0641133 0.00949645 -0.0847223 -0.063954 0.0108282 -0.0877688 
-0.0635703 0.0124257 -0.0905935 -0.0621794 0.0153429 -0.0916444 -0.0606206 0.0184801 -0.0923996 
-0.0585133 0.0233039 -0.0907558 -0.0563436 0.0283193 -0.0888394 -0.0541532 0.0357276 -0.0846477 
-0.0519615 0.0432918 -0.0803076 -0.0494498 0.0540687 -0.0748065 -0.0611611 0.0177416 -0.0713587 
-0.0621803 0.0176492 -0.0758799 -0.062577 0.0184454 -0.0800407 -0.0627935 0.0194989 -0.0840973 
-0.0619966 0.0214878 -0.0872476 -0.0609716 0.0236872 -0.0901939 -0.058868 0.0269009 -0.0914663 
-0.0565845 0.0302836 -0.0924597 -0.0535658 0.0349414 -0.0911139 -0.0504635 0.0397441 -0.0895022 
-0.0470716 0.0463613 -0.0855047 -0.0436608 0.0530968 -0.0813516 -0.039818 0.0622713 -0.0756221 
0.0124056 -0.104143 -0.137346 -0.0106105 -0.112859 -0.13612 -0.0333526 -0.113391 -0.127716 
-0.0560155 -0.111555 -0.117233 -0.0737736 -0.103102 -0.100156 -0.0904283 -0.0931601 -0.0815957 
-0.101562 -0.0806267 -0.0592149 -0.111776 -0.0676613 -0.0361974 -0.119873 -0.0555491 -0.0125087 
-0.12773 -0.0435338 0.0112563 -0.13752 -0.0348033 0.0319288 -0.147436 -0.0262872 0.0523996 
-0.159764 -0.0234155 0.0646024 0.00324917 -0.0965451 -0.119132 -0.0155464 -0.105296 -0.117665 
-0.0339525 -0.107248 -0.110755 -0.0522459 -0.107232 -0.102268 -0.0669558 -0.101502 -0.0883111 
-0.0808596 -0.0944865 -0.0731228 -0.0910286 -0.08479 -0.0540572 -0.100575 -0.0746466 -0.0343453 
-0.109494 -0.0646399 -0.0132189 -0.118341 -0.0546486 0.00806834 -0.130377 -0.0469286 0.0268828 
-0.14262 -0.0393567 0.045536 -0.158445 -0.0361792 0.0556715 -0.00591474 -0.0867539 -0.105406 
-0.0211895 -0.0954709 -0.104159 -0.0359863 -0.098607 -0.098787 -0.0506448 -0.100128 -0.0922205 
-0.0626894 -0.0967771 -0.0810907 -0.074146 -0.0923308 -0.0689342 -0.0832113 -0.0851903 -0.0529504 
-0.0918782 -0.0776009 -0.0363287 -0.101064 -0.069449 -0.0177558 -0.110308 -0.0612332 0.00103877 
-0.123709 -0.0540738 0.0179287 -0.13738 -0.0469833 0.0346943 -0.155564 -0.0424967 0.0429579 
-0.0150853 -0.0750227 -0.0956489 -0.0274582 -0.0836458 -0.0950308 -0.0392887 -0.0877571 -0.091236 
-0.0509621 -0.0905623 -0.0865216 -0.06068 -0.0892874 -0.0779613 -0.069958 -0.0870946 -0.0685355 
-0.0777971 -0.0822619 -0.0554272 -0.0853963 -0.0769892 -0.0417051 -0.0943577 -0.0704706 -0.0256781 
-0.103474 -0.0638104 -0.00938918 -0.117461 -0.0568137 0.00551728 -0.131765 -0.0497951 0.0203336 
-0.151301 -0.0431119 0.0268979 -0.0240081 -0.0629734 -0.0890049 -0.0340101 -0.0713254 -0.0892636 
-0.0434201 -0.0760201 -0.0870764 -0.0526587 -0.0796561 -0.0841812 -0.0603655 -0.0798652 -0.0780343 
-0.0677277 -0.0793033 -0.0711557 -0.0742322 -0.0761813 -0.0607715 -0.0805937 -0.0726326 -0.049803 
-0.0887359 -0.0672665 -0.0362499 -0.0970805 -0.0616939 -0.0224032 -0.110485 -0.0545017 -0.00931852 
-0.124219 -0.0472038 0.00371644 -0.143272 -0.0380412 0.00930518 -0.0327452 -0.0506855 -0.0846956 
-0.0407743 -0.0586335 -0.0860174 -0.0481732 -0.0636178 -0.0854604 -0.0553897 -0.0677443 -0.0843595 
-0.0613221 -0.0689937 -0.0805092 -0.0669656 -0.0695957 -0.0760401 -0.0720543 -0.0677366 -0.0682664 
-0.0770505 -0.0654673 -0.0599419 -0.0839274 -0.0608932 -0.0488089 -0.0910179 -0.0560571 -0.0373567 
-0.102964 -0.0484007 -0.0259726 -0.115226 -0.0405603 -0.014593 -0.132418 -0.0287062 -0.00943698 
-0.0407021 -0.0388415 -0.0821165 -0.0471282 -0.0461177 -0.0845155 -0.0528863 -0.0509588 -0.0854776 
-0.0584511 -0.0550949 -0.0860238 -0.0628416 -0.056787 -0.0842392 -0.0669678 -0.0579291 -0.08193 
-0.0706015 -0.0567363 -0.0765103 -0.074153 -0.0551543 -0.0705721 -0.0793736 -0.050983 -0.0616228 
-0.0847839 -0.0465174 -0.0523313 -0.0944587 -0.0384541 -0.042341 -0.104412 -0.0301561 -0.032305 
-0.11851 -0.0164741 -0.0269302 -0.0481649 -0.0272786 -0.0806334 -0.0532221 -0.0337136 -0.0841183 
-0.057574 -0.0381372 -0.0865291 -0.0617218 -0.0419785 -0.0886291 -0.0647176 -0.0437347 -0.0887641 
-0.0674542 -0.0450217 -0.0884568 -0.0696079 -0.0441174 -0.0852285 -0.0716644 -0.0428478 -0.0815134 
-0.0749814 -0.0388329 -0.0745981 -0.0784416 -0.0345059 -0.0673192 -0.0853306 -0.026072 -0.0585283 
-0.0924432 -0.0173702 -0.0496387 -0.102669 -0.00240718 -0.0436323 -0.054216 -0.0165397 -0.0797735 
-0.0581553 -0.0218871 -0.0841421 -0.0613504 -0.0255436 -0.0877048 -0.06433 -0.0287106 -0.0910342 
-0.0661251 -0.030085 -0.0926861 -0.0676536 -0.0310562 -0.0939605 -0.0684224 -0.0300292 -0.0924847 
-0.0690646 -0.0286691 -0.0905504 -0.0704743 -0.0246396 -0.0852819 -0.0719712 -0.0203067 -0.0796344 
-0.0760311 -0.0118526 -0.0717746 -0.0802581 -0.0031298 -0.0637706 -0.0866954 0.0118603 -0.0570535 
-0.0595171 -0.00623839 -0.0792446 -0.0624718 -0.0103675 -0.0843897 -0.0646425 -0.0130711 -0.0889464 
-0.0665863 -0.0153621 -0.0933328 -0.0672837 -0.016118 -0.0962877 -0.0677007 -0.0165285 -0.0989206 
-0.0671351 -0.0151604 -0.098964 -0.0664056 -0.0134959 -0.0985758 -0.0659062 -0.00936089 -0.0947482 
-0.0654329 -0.00494514 -0.0905297 -0.0666406 0.00334279 -0.0834586 -0.0679578 0.0118833 -0.0762015 
-0.0706518 0.0262343 -0.0687317 -0.0629236 0.00291237 -0.0786041 -0.0650742 0.000124249 -0.0841877 
-0.0664098 -0.00145403 -0.0893204 -0.0675096 -0.0026821 -0.0943225 -0.0673108 -0.00261123 -0.0980683 
-0.0668199 -0.00224811 -0.101531 -0.0651596 -0.000376746 -0.102557 -0.0633045 0.00174599 -0.103177 
-0.0612369 0.00597845 -0.100359 -0.0591451 0.0104507 -0.0971509 -0.0580438 0.0182468 -0.0907128 
-0.057007 0.0262596 -0.084064 -0.0567975 0.0392134 -0.0761774 -0.0654942 0.0115555 -0.0779144 
-0.0669202 0.0101625 -0.0837874 -0.0675043 0.00978563 -0.0893116 -0.0678447 0.00970292 -0.0947349 
-0.0668386 0.0106924 -0.0990453 -0.0655296 0.0119232 -0.103105 -0.0628807 0.0143694 -0.104877 
-0.0600084 0.0170182 -0.106267 -0.056523 0.0213446 -0.104269 -0.0529679 0.0258616 -0.101886 
-0.0497971 0.0330222 -0.0960125 -0.0466514 0.0403551 -0.0899109 -0.043909 0.051577 -0.0817558 
-0.0659907 0.018756 -0.0767584 -0.066847 0.0187232 -0.0825671 -0.0668573 0.0195262 -0.0880738 
-0.0666226 0.020571 -0.0934931 -0.0650385 0.0224589 -0.0978974 -0.0631508 0.0245366 -0.102073 
-0.0598423 0.0275108 -0.104118 -0.056297 0.0306344 -0.105807 -0.0518901 0.0349566 -0.104273 
-0.0473853 0.0394151 -0.102372 -0.0428647 0.0457918 -0.0969835 -0.0383431 0.0522936 -0.0913672 
-0.0339656 0.061662 -0.0833248 0.0138041 -0.0845543 -0.136075 -0.00529159 -0.0928788 -0.134292 
-0.0236561 -0.0949421 -0.125493 -0.0418089 -0.0951929 -0.114662 -0.0558792 -0.0900134 -0.0967755 
-0.0690309 -0.0836121 -0.0773013 -0.0781346 -0.0744518 -0.0526006 -0.0865638 -0.0648317 -0.0270289 
-0.0946997 -0.055162 0.00121983 -0.102802 -0.0454867 0.0297727 -0.115323 -0.0383501 0.0569907 
-0.128133 -0.031379 0.0841216 -0.146255 -0.0302263 0.103213 0.00481326 -0.0811551 -0.120156 
-0.0109746 -0.0900086 -0.118422 -0.025874 -0.0935464 -0.111166 -0.0405161 -0.0955455 -0.102312 
-0.0519537 -0.0928147 -0.0873728 -0.0626704 -0.0890196 -0.0710651 -0.0706628 -0.0825297 -0.0494528 
-0.0782012 -0.0755905 -0.0269563 -0.0867897 -0.0681261 -0.000989987 -0.0954974 -0.060602 0.0253707 
-0.11014 -0.0546986 0.051163 -0.12517 -0.0489009 0.0769182 -0.147304 -0.0475412 0.0945164 
-0.00464431 -0.0751173 -0.108121 -0.0176274 -0.0843424 -0.106877 -0.029612 -0.0891267 -0.101306 
-0.0413076 -0.0926254 -0.0944823 -0.0504463 -0.0920742 -0.0824174 -0.0590098 -0.0906117 -0.0691732 
-0.0658262 -0.0865522 -0.0506812 -0.0723513 -0.0820599 -0.0313144 -0.0809086 -0.0765276 -0.00790806 
-0.0896968 -0.0708771 0.0159574 -0.105523 -0.0656652 0.0399509 -0.121808 -0.0604819 0.0639529 
-0.146578 -0.0576665 0.0799832 -0.0145148 -0.0667453 -0.0995219 -0.0251382 -0.076203 -0.0991581 
-0.0346949 -0.0820318 -0.0953971 -0.0439427 -0.0868101 -0.0906527 -0.0510779 -0.0882005 -0.0813962 
-0.0577377 -0.0888286 -0.0711245 -0.0633206 -0.0869875 -0.0557809 -0.0687241 -0.0847349 -0.039592 
-0.0768223 -0.080893 -0.0189912 -0.0852268 -0.0768705 0.002111 -0.101406 -0.0718709 0.0239759 
-0.118092 -0.0668076 0.0458906 -0.14428 -0.0614319 0.0602867 -0.0244053 -0.0573045 -0.0937513 
-0.0330829 -0.0666963 -0.0945197 -0.0406569 -0.0731249 -0.0926545 -0.0479114 -0.0786957 -0.0900271 
-0.0533263 -0.081432 -0.0835471 -0.0583274 -0.0835304 -0.0762002 -0.0625985 -0.0832831 -0.0640329 
-0.066748 -0.0826448 -0.0510621 -0.0737934 -0.0799324 -0.0334201 -0.0811679 -0.0769842 -0.0152474 
-0.09636 -0.0717252 0.00438989 -0.112062 -0.0663156 0.0241226 -0.137302 -0.0579801 0.0373567 
-0.0343107 -0.0470622 -0.090102 -0.041353 -0.0561644 -0.0921919 -0.0472783 -0.0628591 -0.092287 
-0.0528802 -0.0688569 -0.0918046 -0.0567874 -0.0724922 -0.0880771 -0.0603134 -0.075596 -0.0836194 
-0.063214 -0.076474 -0.0746491 -0.0660103 -0.0769809 -0.0649267 -0.0715576 -0.0749772 -0.0503585 
-0.0774175 -0.0726881 -0.0352397 -0.0906172 -0.0668161 -0.0179043 -0.104296 -0.0607103 -0.00042439 
-0.126815 -0.0491154 0.0120015 -0.0434527 -0.0365724 -0.0879935 -0.0491568 -0.0449937 -0.0914 
-0.0537373 -0.051427 -0.0933357 -0.0579927 -0.0572847 -0.0948457 -0.0605932 -0.0611424 -0.0936492 
-0.0628215 -0.06455 -0.0918439 -0.0643166 -0.0658613 -0.0858463 -0.0656894 -0.0668232 -0.07915 
-0.0693408 -0.0650333 -0.0674793 -0.0732512 -0.0629306 -0.0552433 -0.0835426 -0.0564556 -0.0399926 
-0.0942501 -0.0496955 -0.0245452 -0.112522 -0.0358783 -0.0123967 -0.0521111 -0.0259259 -0.0868609 
-0.0566651 -0.0334186 -0.0915808 -0.0600936 -0.0392562 -0.0952815 -0.0631962 -0.0446149 -0.098687 
-0.0646174 -0.0482661 -0.0998814 -0.0656602 -0.0515332 -0.100578 -0.0657277 -0.0528397 -0.0974114 
-0.0656326 -0.0538195 -0.0936004 -0.0671362 -0.0519298 -0.0847155 -0.0688214 -0.0497141 -0.075254 
-0.0756244 -0.0426427 -0.0619503 -0.0827611 -0.0352547 -0.048396 -0.0958177 -0.0198719 -0.0361889 
-0.0591332 -0.0155977 -0.0861434 -0.0627298 -0.0218231 -0.0919139 -0.0651953 -0.0266338 -0.0970012 
-0.0673334 -0.0310349 -0.101891 -0.0677309 -0.0339559 -0.104963 -0.0677369 -0.0365439 -0.107625 
-0.0664776 -0.0373528 -0.106722 -0.0650074 -0.0378651 -0.105225 -0.0644106 -0.0356421 -0.0986288 
-0.0639131 -0.0331083 -0.0914535 -0.0672764 -0.0258194 -0.0797764 -0.0708915 -0.0182205 -0.0678058 
-0.0789929 -0.00278358 -0.0554941 -0.065286 -0.00543856 -0.0856465 -0.0680275 -0.0102167 -0.0923278 
-0.0696306 -0.0137713 -0.098601 -0.0709042 -0.0169716 -0.104756 -0.0703608 -0.018884 -0.109432 
-0.0694087 -0.0205067 -0.113776 -0.0668762 -0.020556 -0.114835 -0.0640803 -0.0203432 -0.115348 
-0.0614083 -0.0176627 -0.110777 -0.0587504 -0.0147018 -0.105628 -0.0587 -0.00739685 -0.0954076 
-0.0588196 0.00019146 -0.0848562 -0.0621037 0.0148796 -0.0724156 -0.0691685 0.00385238 -0.0848115 
-0.0711842 0.000676003 -0.0919783 -0.0720582 -0.00142989 -0.0988977 -0.0726017 -0.00322591 -0.105745 
-0.0712828 -0.00391438 -0.111339 -0.0695449 -0.00435364 -0.116652 -0.0659994 -0.00348227 -0.118927 
-0.0621525 -0.00239246 -0.120696 -0.0578516 0.000724012 -0.117528 -0.053499 0.00407079 -0.113799 
-0.0507902 0.0110192 -0.10477 -0.0481885 0.0182024 -0.0953958 -0.0478465 0.031278 -0.0831597 
-0.0720493 0.0127603 -0.0838273 -0.0733964 0.0112539 -0.091292 -0.0736001 0.0106816 -0.0986195 
-0.0734728 0.0103796 -0.105907 -0.0714513 0.0110101 -0.112116 -0.0690037 0.0118505 -0.118083 
-0.0645599 0.0137137 -0.121244 -0.0597833 0.0157475 -0.123937 -0.0540502 0.0192905 -0.121898 
-0.0482084 0.023005 -0.119322 -0.0431744 0.0294323 -0.111368 -0.0381931 0.0360365 -0.103063 
-0.0347505 0.0471184 -0.0911785 -0.0724672 0.0203116 -0.0821917 -0.0732639 0.0204077 -0.0895232 
-0.0729359 0.0212962 -0.0967463 -0.0722822 0.0224141 -0.103938 -0.0697657 0.0242687 -0.110148 
-0.06683 0.026289 -0.116136 -0.0618445 0.0290116 -0.119539 -0.0565173 0.0318511 -0.122511 
-0.0499527 0.0356505 -0.121082 -0.0432475 0.039559 -0.119152 -0.0368061 0.0452866 -0.112079 
-0.0303819 0.0511329 -0.104671 -0.0250214 0.0601461 -0.0934732 0.0158335 -0.0680074 -0.130054 
0.000503559 -0.0763 -0.127744 -0.0135106 -0.0798438 -0.118743 -0.0271439 -0.082013 -0.107805 
-0.037164 -0.0797106 -0.0894311 -0.0463711 -0.0764021 -0.0693841 -0.0526922 -0.0702044 -0.0425544 
-0.0585323 -0.0635252 -0.0145943 -0.0658959 -0.0559524 0.0185146 -0.0734326 -0.048278 0.0522086 
-0.0883033 -0.042371 0.0870007 -0.103652 -0.0365792 0.121864 -0.128051 -0.0367756 0.149475 
0.00673465 -0.0679184 -0.117347 -0.00606965 -0.0771626 -0.115405 -0.0173537 -0.0823392 -0.107988 
-0.0281978 -0.0863383 -0.0989867 -0.0359328 -0.0864598 -0.0833307 -0.0429682 -0.0857089 -0.0661774 
-0.0480241 -0.0822662 -0.0421047 -0.05275 -0.0783748 -0.0168787 -0.0601839 -0.0733145 0.0143836 
-0.0679255 -0.0681212 0.0463317 -0.0847711 -0.0638448 0.0803713 -0.10221 -0.0596282 0.114547 
-0.131184 -0.0598426 0.141617 -0.00326348 -0.0649788 -0.107807 -0.0139068 -0.0749576 -0.106654 
-0.0228973 -0.0815248 -0.101073 -0.0314093 -0.0871044 -0.09421 -0.0371794 -0.0893995 -0.0814474 
-0.0423326 -0.0909556 -0.0673575 -0.0461384 -0.0900301 -0.046394 -0.0497197 -0.0886909 -0.0242849 
-0.056808 -0.085837 0.00448744 -0.0642948 -0.0828109 0.0340169 -0.0821052 -0.0795396 0.0665175 
-0.100589 -0.0762523 0.0992119 -0.13248 -0.0750022 0.12527 -0.0140572 -0.0595173 -0.101068 
-0.0228622 -0.0700389 -0.101078 -0.0299451 -0.0777825 -0.0975546 -0.0365295 -0.0847221 -0.0930083 
-0.0406179 -0.0889693 -0.0832946 -0.0441448 -0.0926107 -0.0724181 -0.0467141 -0.093992 -0.0548755 
-0.0491238 -0.0949965 -0.0362218 -0.0554986 -0.0940783 -0.0105085 -0.062324 -0.0929416 0.0160069 
-0.0802056 -0.0901222 0.0462728 -0.0988084 -0.0871929 0.0767833 -0.13215 -0.0831669 0.101414 
-0.0251372 -0.0523718 -0.0967446 -0.0324259 -0.063021 -0.098173 -0.0379753 -0.0714181 -0.0968604 
-0.0430212 -0.0791632 -0.0947544 -0.045704 -0.0847105 -0.0882126 -0.0478551 -0.0897631 -0.0806727 
-0.0491559 -0.0927426 -0.0668087 -0.0503148 -0.0953765 -0.0518907 -0.0553937 -0.0957029 -0.0296861 