# vtk DataFile Version 2.0
vtk output
ASCII
DATASET RECTILINEAR_GRID
DIMENSIONS 13 13 13
X_COORDINATES 13 float
2.5 2.70833 2.91667 3.125 3.33333 3.54167 3.75 3.95833 4.16667 
4.375 4.58333 4.79167 5 
Y_COORDINATES 13 float
7.5 7.70833 7.91667 8.125 8.33333 8.54167 8.75 8.95833 9.16667 
9.375 9.58333 9.79167 10 
Z_COORDINATES 13 float
-5 -4.79167 -4.58333 -4.375 -4.16667 -3.95833 -3.75 -3.54167 -3.33333 
-3.125 -2.91667 -2.70833 -2.5 
POINT_DATA 2197
VECTORS grad float
0.0412568 -0.119744 0.0829499 0.0423945 -0.122424 0.0764716 0.0422857 -0.125549 0.0687549 
0.0414711 -0.128799 0.0607716 0.0390567 -0.132331 0.0521839 0.0357454 -0.135805 0.0437592 
0.0307459 -0.13917 0.0356413 0.0249428 -0.142149 0.0283781 0.017871 -0.14452 0.0224643 
0.0105763 -0.146199 0.0181182 0.00298444 -0.146958 0.0158623 -0.00386482 -0.147046 0.0154507 
-0.00987462 -0.146378 0.0171239 0.0383009 -0.118049 0.083755 0.0392007 -0.121062 0.0778112 
0.0388826 -0.124439 0.0707922 0.037919 -0.127899 0.0635613 0.0354923 -0.13155 0.0558499 
0.0322858 -0.13511 0.0482995 0.0276111 -0.138497 0.0410523 0.0222634 -0.141496 0.034527 
0.0158527 -0.143883 0.0291416 0.00926065 -0.145616 0.0250351 0.00242663 -0.146477 0.0226338 
-0.003805 -0.146702 0.0217318 -0.00935565 -0.146206 0.0225249 0.0351534 -0.115974 0.0842613 
0.0358405 -0.119245 0.0788572 0.0353459 -0.122794 0.072533 0.0342658 -0.126388 0.0660454 
0.0318589 -0.130079 0.0591873 0.0287834 -0.133649 0.0524825 0.0244495 -0.136987 0.0460664 
0.0195634 -0.139944 0.0402447 0.0138055 -0.142298 0.0353612 0.00790291 -0.144048 0.031491 
0.00180745 -0.144992 0.0289718 -0.00381563 -0.145347 0.0276365 -0.00890469 -0.145038 0.0276396 
0.0318119 -0.113072 0.0836872 0.0323555 -0.116421 0.0787953 0.0317737 -0.11998 0.0731027 
0.0306614 -0.123552 0.0672767 0.028347 -0.127152 0.0611483 0.0254527 -0.130611 0.055156 
0.0214667 -0.133807 0.0494195 0.0170167 -0.13664 0.0441736 0.0118343 -0.138902 0.039702 
0.0065292 -0.140618 0.0360476 0.0010606 -0.141606 0.0334827 -0.00403485 -0.142065 0.0318721 
-0.00870844 -0.141923 0.0313403 0.0284206 -0.109958 0.0828361 0.0288384 -0.11334 0.0784494 
0.0281923 -0.116866 0.0733721 0.0270696 -0.120377 0.0681868 0.0248664 -0.123851 0.0627565 
0.0221661 -0.12717 0.0574423 0.0185297 -0.130199 0.0523467 0.0145093 -0.132888 0.0476438 
0.00988256 -0.135041 0.0435609 0.0051514 -0.13671 0.040117 0.000281001 -0.137734 0.0375251 
-0.00430756 -0.138287 0.0356798 -0.00857751 -0.13831 0.0346785 0.025115 -0.106442 0.0809862 
0.0254544 -0.109741 0.0770591 0.0248024 -0.113142 0.072521 0.0237206 -0.116511 0.0678882 
0.0216647 -0.119804 0.0630403 0.019174 -0.12294 0.0582866 0.0158649 -0.125781 0.0537101 
0.0122264 -0.128309 0.0494516 0.00806764 -0.130343 0.0456952 0.00381309 -0.131948 0.042452 
-0.000569186 -0.132981 0.0398932 -0.00473582 -0.133597 0.0379364 -0.00865866 -0.133741 0.0366601 
0.0218261 -0.102847 0.0789414 0.0220964 -0.106041 0.075465 0.0214498 -0.109299 0.0714514 
0.020419 -0.112509 0.0673537 0.0185174 -0.115612 0.0630657 0.0162395 -0.118557 0.0588495 
0.0132533 -0.121205 0.0547684 0.00998725 -0.123569 0.050935 0.00627941 -0.125482 0.0474929 
0.00248251 -0.12702 0.0444486 -0.00143314 -0.128057 0.0419347 -0.00519443 -0.128728 0.0398904 
-0.0087812 -0.128987 0.038377 0.018799 -0.0992261 0.0761463 0.0190247 -0.102252 0.0730675 
0.0184106 -0.105321 0.0695044 0.017451 -0.108337 0.065862 0.0157085 -0.111235 0.0620398 
0.0136333 -0.113982 0.0582693 0.0109319 -0.116445 0.0545963 0.00798394 -0.11865 0.0511196 
0.00464678 -0.120447 0.0479528 0.00122293 -0.121912 0.0451042 -0.00231647 -0.122933 0.0426798 
-0.0057439 -0.123629 0.0406348 -0.00904472 -0.123957 0.0390187 0.0158084 -0.0956017 0.0732464 
0.015993 -0.09845 0.070558 0.015415 -0.101324 0.0674351 0.0145295 -0.104142 0.0642367 
0.0129468 -0.106832 0.0608671 0.0110729 -0.10938 0.0575296 0.00865094 -0.111659 0.0542526 
0.00601352 -0.113706 0.051123 0.00303584 -0.115388 0.048226 -2.6737e-05 -0.116778 0.0455726 
-0.00320251 -0.117781 0.043244 -0.00630605 -0.118498 0.0412105 -0.00932791 -0.11889 0.0395104 
0.0131772 -0.0922094 0.0699107 0.0133295 -0.0948524 0.0675557 0.0127923 -0.0975155 0.0648035 
0.0119794 -0.100125 0.0619773 0.0105414 -0.102611 0.0589833 0.00884374 -0.104966 0.056006 
0.00665722 -0.107073 0.0530603 0.0042768 -0.108973 0.0502271 0.00159023 -0.110544 0.0475719 
-0.00118038 -0.111857 0.0451095 -0.00406301 -0.112825 0.0429044 -0.00689945 -0.113536 0.0409372 
-0.00968369 -0.113956 0.0392389 0.010578 -0.0888378 0.0665363 0.0106986 -0.091273 0.0645097 
0.0102027 -0.0937239 0.0621219 0.00946237 -0.0961233 0.0596614 0.00816776 -0.0984057 0.0570363 
0.00664403 -0.100568 0.0544128 0.00468902 -0.102506 0.0517925 0.00256087 -0.104259 0.0492514 
0.000159306 -0.10572 0.0468353 -0.00232548 -0.106954 0.0445636 -0.00492123 -0.107886 0.0424843 
-0.00749564 -0.10859 0.0405884 -0.0100459 -0.109034 0.0388997 0.00837934 -0.0871671 0.0630241 
0.00846899 -0.0894908 0.061268 0.00800714 -0.0918302 0.0591791 0.00732677 -0.0941204 0.0570187 
0.00615106 -0.0962989 0.0546962 0.00477005 -0.0983641 0.0523649 0.00300257 -0.100216 0.0500169 
0.00107756 -0.101895 0.0477253 -0.00109618 -0.1033 0.0455227 -0.00335158 -0.104493 0.043432 
-0.00571586 -0.105402 0.0414905 -0.00807398 -0.106095 0.0396956 -0.0104251 -0.106545 0.0380664 
0.00619776 -0.0855687 0.059506 0.00625645 -0.0877852 0.0580179 0.0058283 -0.0900173 0.0562251 
0.00520739 -0.0922026 0.054362 0.00414954 -0.0942813 0.0523395 0.00290991 -0.096253 0.0502976 
0.00132809 -0.0980234 0.0482196 -0.000395852 -0.0996312 0.0461757 -0.0023442 -0.100982 0.0441856 
-0.00437262 -0.102135 0.0422755 -0.00650779 -0.103022 0.0404722 -0.00865155 -0.103706 0.0387796 
-0.010805 -0.104159 0.0372122 0.0355842 -0.11857 0.0793163 0.0358879 -0.120792 0.0737404 
0.0351692 -0.123315 0.0669901 0.0339049 -0.125917 0.0599815 0.0314039 -0.128696 0.0523873 
0.0282524 -0.131425 0.0449132 0.0238766 -0.134061 0.0376653 0.0189696 -0.136435 0.0311111 
0.0132238 -0.138397 0.0256522 0.00741479 -0.139926 0.0214543 0.00152148 -0.140879 0.0189379 
-0.00370494 -0.141468 0.0179107 -0.00817743 -0.141645 0.018567 0.0330809 -0.117457 0.0798707 
0.0332374 -0.120001 0.0747188 0.0323925 -0.122773 0.0685297 0.0310447 -0.12559 0.0621233 
0.0285571 -0.128509 0.0552243 0.0254969 -0.131348 0.0484371 0.0213589 -0.134038 0.0418603 
0.0167684 -0.136455 0.0358694 0.0114634 -0.138443 0.0308035 0.00610482 -0.140006 0.0267798 
0.000674655 -0.141002 0.0241456 -0.00420955 -0.141632 0.0227423 -0.00847657 -0.141848 0.0227307 
0.0303938 -0.115996 0.0801372 0.0304258 -0.118795 0.0754189 0.0294826 -0.121752 0.0697965 
0.028079 -0.124721 0.0639944 0.0256318 -0.127718 0.057785 0.0226863 -0.130609 0.0516763 
0.0188027 -0.1333 0.0457572 0.0145403 -0.135713 0.0403199 0.00967955 -0.137689 0.0356435 
0.00477311 -0.139256 0.0318044 -0.000194206 -0.140281 0.0290818 -0.00472843 -0.140947 0.0273494 
-0.00877305 -0.141209 0.0267363 0.0274938 -0.1137 0.0794339 0.0274553 -0.116592 0.0751375 
0.0264834 -0.119588 0.0700451 0.0250903 -0.122573 0.0647989 0.0227425 -0.125532 0.0592041 
0.0199563 -0.128368 0.0536945 0.0163447 -0.130975 0.048345 0.0124085 -0.133312 0.0433921 
0.00795976 -0.135221 0.0390651 0.00346752 -0.13675 0.0354191 -0.0010827 -0.137774 0.0326809 
-0.00528737 -0.138462 0.0307504 -0.00910141 -0.138769 0.0297328 0.0245394 -0.11119 0.078482 
0.0244441 -0.114133 0.0746044 0.0234613 -0.117132 0.0700327 0.0220957 -0.120098 0.06533 
0.0198625 -0.122987 0.0603305 0.017247 -0.125742 0.0553995 0.0139118 -0.128243 0.0505972 
0.0103014 -0.130484 0.0461108 0.0062564 -0.132313 0.0421231 0.00216863 -0.133794 0.0386722 
-0.00197622 -0.13481 0.0359372 -0.00585658 -0.135515 0.0338421 -0.00943794 -0.135866 0.0324705 
0.0216332 -0.108182 0.0766601 0.0215134 -0.111067 0.0731695 0.0205618 -0.11398 0.0690625 
0.0192617 -0.116846 0.0648387 0.0171714 -0.119609 0.0603503 0.014742 -0.122234 0.0559133 
0.0116743 -0.1246 0.0515732 0.00836557 -0.126721 0.047487 0.00467613 -0.128454 0.0438017 
0.000941205 -0.12987 0.0405488 -0.00285434 -0.130863 0.0378724 -0.006445 -0.131569 0.0357155 
-0.00980404 -0.13195 0.0341456 0.0187364 -0.105077 0.0746683 0.0185985 -0.107884 0.0715586 
0.0176863 -0.110692 0.0679055 0.0164589 -0.113444 0.064148 0.0145172 -0.116068 0.0601542 
0.012277 -0.118554 0.0561948 0.00947507 -0.120779 0.0523003 0.00646322 -0.122775 0.0486013 
0.00311987 -0.124409 0.0452112 -0.00027227 -0.125757 0.0421567 -0.00372946 -0.126723 0.0395499 
-0.00703718 -0.127428 0.0373511 -0.0101759 -0.127835 0.0356134 0.0160567 -0.101801 0.0720289 
0.0159135 -0.104468 0.0692594 0.0150569 -0.107124 0.0660009 0.0139144 -0.109722 0.0626454 
0.0121238 -0.112186 0.0590701 0.0100659 -0.114517 0.0555146 0.00750498 -0.116596 0.0519964 
0.00475542 -0.118464 0.048631 0.00170799 -0.119998 0.0455067 -0.00139213 -0.121274 0.0426503 
-0.00456249 -0.122204 0.0401513 -0.00762217 -0.122893 0.0379823 -0.0105567 -0.12331 0.0361867 
0.0134072 -0.0985027 0.069299 0.0132606 -0.101019 0.0668642 0.0124618 -0.103517 0.063992 
0.0114058 -0.105955 0.0610295 0.00976676 -0.108256 0.0578621 0.00789026 -0.11043 0.0547003 
0.00556687 -0.112363 0.0515487 0.00307476 -0.114103 0.0485093 0.000316241 -0.115537 0.0456467 
-0.00249894 -0.116739 0.0429884 -0.00538965 -0.117631 0.0406024 -0.00820617 -0.118304 0.0384734 
-0.0109388 -0.118727 0.0366351 0.0110691 -0.0952845 0.0661914 0.0109195 -0.0976236 0.064046 
0.0101772 -0.0999445 0.0615023 0.00920246 -0.102208 0.0588723 0.00770094 -0.104341 0.0560471 
0.0059854 -0.106356 0.0532163 0.003867 -0.108148 0.0503751 0.00159429 -0.109764 0.0476173 
-0.000922086 -0.111102 0.0449912 -0.00349786 -0.112229 0.0425256 -0.00615281 -0.113075 0.0402741 
-0.00875778 -0.113719 0.0382297 -0.0113063 -0.114135 0.0364191 0.00875874 -0.0920735 0.0630502 
0.00860607 -0.0942325 0.0611903 0.00792009 -0.0963745 0.0589698 0.00702619 -0.0984623 0.056667 
0.005661 -0.100428 0.054178 0.00410461 -0.102284 0.0516727 0.00218831 -0.103935 0.0491369 
0.000131616 -0.105427 0.0466569 -0.00214678 -0.106668 0.0442649 -0.00448719 -0.107721 0.0419916 
-0.00691028 -0.108521 0.0398766 -0.00930652 -0.109136 0.0379206 -0.0116724 -0.109541 0.0361442 
0.0068 -0.0904491 0.0597866 0.00663925 -0.092511 0.0581651 0.00599921 -0.0945579 0.0562125 
0.00517217 -0.0965531 0.0541808 0.00392128 -0.0984313 0.0519699 0.00249763 -0.100206 0.0497355 
0.000748814 -0.101786 0.0474568 -0.00112928 -0.103215 0.0452152 -0.0032115 -0.104407 0.0430322 
-0.00535645 -0.105419 0.04094 -0.00758505 -0.106194 0.0389687 -0.00980111 -0.106791 0.0371239 
-0.012003 -0.107188 0.0354222 0.00485621 -0.0888923 0.0565178 0.00468718 -0.0908605 0.0551327 
0.00409263 -0.0928159 0.0534457 0.00333186 -0.094722 0.0516826 0.00219432 -0.0965167 0.0497473 
0.000902302 -0.098213 0.0477814 -0.000680513 -0.0997242 0.0457578 -0.00238159 -0.101093 0.043753 
-0.00426941 -0.102237 0.0417781 -0.00622061 -0.103212 0.0398664 -0.00825631 -0.103962 0.0380391 
-0.0102934 -0.104542 0.0363066 -0.012332 -0.10493 0.0346812 0.0307631 -0.117726 0.0771439 
0.0302589 -0.119607 0.0723899 0.0289306 -0.121664 0.0664752 0.0272 -0.123762 0.0602895 
0.0245571 -0.125955 0.0534892 0.0214767 -0.128108 0.0467523 0.0175726 -0.130185 0.0401348 
0.0133641 -0.132099 0.0340615 0.00867479 -0.133756 0.0288476 0.00405453 -0.135176 0.0246339 
-0.000473675 -0.136281 0.0217542 -0.00438831 -0.13725 0.0200641 -0.00760934 -0.138065 0.0197188 
0.028603 -0.117189 0.0773475 0.0280328 -0.119371 0.0729153 0.0266498 -0.121661 0.0674457 
0.0248915 -0.123964 0.0617388 0.0222824 -0.126294 0.0554939 0.019282 -0.128556 0.0493029 
0.0155449 -0.130691 0.0432135 0.0115431 -0.132644 0.0375826 0.00712344 -0.134313 0.0326758 
0.00275925 -0.135733 0.0286051 -0.00153094 -0.136821 0.0256492 -0.0053141 -0.137749 0.0236919 
-0.0085241 -0.138496 0.0228634 0.0262705 -0.116316 0.0772628 0.0256562 -0.118741 0.0731656 
0.0242442 -0.121214 0.0681531 0.0224835 -0.12367 0.0629355 0.0199323 -0.126091 0.0572531 
0.0170339 -0.128419 0.0516143 0.0134818 -0.130573 0.0460576 0.00970219 -0.132532 0.0408765 
0.00556321 -0.134185 0.0362887 0.00146641 -0.135584 0.0323807 -0.00257412 -0.136646 0.0293792 
-0.00620754 -0.13753 0.0271946 -0.00938075 -0.138213 0.0259333 0.023723 -0.114567 0.0763005 
0.0231074 -0.11709 0.0725411 0.0217222 -0.119619 0.067971 0.0200134 -0.122112 0.0632208 
0.017571 -0.124526 0.0580624 0.0148169 -0.126832 0.052936 0.0114763 -0.128936 0.0478699 
0.00793523 -0.130842 0.0431109 0.00407757 -0.132438 0.0388368 0.000248778 -0.133786 0.035119 
-0.00354152 -0.134804 0.032143 -0.00700332 -0.13564 0.0298401 -0.0100938 -0.13627 0.0282983 
0.0211204 -0.112594 0.0751133 0.0205145 -0.115177 0.0716923 0.0191705 -0.117729 0.0675608 
0.0175275 -0.120229 0.0632724 0.0152067 -0.122611 0.0586281 0.0126079 -0.124873 0.054004 
0.00948555 -0.126909 0.0494177 0.00618725 -0.128748 0.0450736 0.00261107 -0.130275 0.0411119 
-0.000949574 -0.131564 0.0375914 -0.00448949 -0.132535 0.034659 -0.00777405 -0.133323 0.0322659 
-0.0107699 -0.133902 0.0304826 0.0185444 -0.110023 0.0731841 0.0179677 -0.112564 0.0700838 
0.0166938 -0.115057 0.0663526 0.0151438 -0.117489 0.0624809 0.0129678 -0.119784 0.0582907 
0.01054 -0.121955 0.0541094 0.00763837 -0.123893 0.0499449 0.00457741 -0.12564 0.0459725 
0.00126484 -0.127085 0.0423034 -0.00204443 -0.128305 0.0389899 -0.00534931 -0.129225 0.0361503 
-0.00845337 -0.129964 0.0337507 -0.0113304 -0.130499 0.0318485 0.0159736 -0.107335 0.0711101 
0.0154299 -0.109815 0.0683271 0.0142318 -0.112232 0.0649886 0.01278 -0.114582 0.0615248 
0.0107533 -0.116779 0.0577771 0.0084997 -0.11885 0.0540271 0.00581923 -0.120685 0.0502729 
0.00299453 -0.122335 0.0466638 -5.79086e-05 -0.123696 0.0432835 -0.00311909 -0.124845 0.0401789 
-0.00619192 -0.125712 0.0374418 -0.00911486 -0.126403 0.0350519 -0.0118683 -0.126895 0.0330546 
0.0135887 -0.104347 0.0685049 0.0130798 -0.106706 0.0660108 0.0119638 -0.109001 0.0630189 
0.0106148 -0.111228 0.059912 0.00873776 -0.113301 0.0565449 0.00665384 -0.115252 0.0531663 
0.00418048 -0.116974 0.0497661 0.00157336 -0.118522 0.0464764 -0.00124497 -0.119797 0.043361 
-0.00408175 -0.120874 0.0404645 -0.00694311 -0.121688 0.0378598 -0.00969072 -0.122332 0.0355362 
-0.0123098 -0.122785 0.0335304 0.0112297 -0.101316 0.0658256 0.0107558 -0.103547 0.0636165 
0.00972278 -0.105713 0.0609646 0.00847722 -0.107811 0.0582076 0.00675 -0.109757 0.0552124 
0.0048351 -0.111586 0.0521969 0.0025669 -0.113193 0.0491428 0.000174753 -0.114638 0.0461664 
-0.00241311 -0.115827 0.0433126 -0.00502879 -0.116832 0.0406241 -0.00768153 -0.117593 0.0381559 
-0.0102546 -0.118191 0.0359064 -0.0127377 -0.118605 0.0339043 0.009146 -0.0982358 0.0628486 
0.00869889 -0.100311 0.0608903 0.00774079 -0.102327 0.0585307 0.00658884 -0.10428 0.0560729 
0.00499746 -0.10609 0.0533926 0.00323434 -0.10779 0.0506851 0.00114797 -0.109283 0.0479266 
-0.00105469 -0.110626 0.0452228 -0.00344096 -0.111731 0.0426055 -0.00586139 -0.112666 0.0401166 
-0.00832736 -0.113374 0.0377989 -0.0107367 -0.113927 0.0356566 -0.0130819 -0.114304 0.0337127 
0.00708672 -0.0951509 0.0598451 0.00666566 -0.0970676 0.0581347 0.00578183 -0.0989326 0.0560631 
0.0047226 -0.100739 0.0539 0.00326581 -0.102412 0.0515294 0.00165296 -0.103982 0.0491251 
-0.000253663 -0.105361 0.0466577 -0.0022691 -0.106602 0.0442229 -0.00445634 -0.107624 0.0418398 
-0.00668383 -0.108489 0.0395498 -0.00896496 -0.109144 0.0373838 -0.0112114 -0.109652 0.0353517 
-0.0134187 -0.109993 0.033471 0.00534006 -0.0935604 0.0567592 0.00493384 -0.0953914 0.0552593 
0.00410986 -0.0971753 0.0534291 0.00312696 -0.0989031 0.0515123 0.00178383 -0.100504 0.0493995 
0.000298136 -0.102007 0.047249 -0.00145593 -0.103328 0.0450273 -0.00331202 -0.104516 0.0428238 
-0.00532918 -0.105495 0.0406488 -0.00738969 -0.106324 0.0385432 -0.00950799 -0.106952 0.0365303 
-0.0116055 -0.107437 0.034623 -0.0136794 -0.107758 0.0328354 0.00360669 -0.0920335 0.0536698 
0.00321484 -0.0937818 0.0523788 0.0024501 -0.0954875 0.0507879 0.00154282 -0.0971399 0.0491155 
0.000312473 -0.0986716 0.0472583 -0.00104705 -0.10011 0.0453593 -0.00264973 -0.101374 0.0433816 
-0.00434765 -0.102512 0.0414077 -0.00619597 -0.10345 0.0394397 -0.0080906 -0.104244 0.037518 
-0.010047 -0.104847 0.0356581 -0.0119961 -0.105309 0.0338764 -0.0139369 -0.105613 0.0321831 
0.0266953 -0.117176 0.0762641 0.0254063 -0.118818 0.072261 0.0234686 -0.120527 0.0670661 
0.0212568 -0.12225 0.0615687 0.0184235 -0.124005 0.0553858 0.0153356 -0.12573 0.0491973 
0.0117686 -0.127399 0.0429984 0.0080837 -0.128982 0.0372043 0.00421253 -0.130427 0.0320495 
0.000518415 -0.131774 0.027675 -0.00293961 -0.132992 0.0243411 -0.00581766 -0.134234 0.0219463 
-0.00804005 -0.135504 0.020613 0.0247814 -0.117207 0.0760283 0.0234993 -0.119123 0.0722519 
0.0215685 -0.12104 0.0674043 0.0193763 -0.122942 0.0622862 0.016592 -0.124811 0.0565553 
0.0135747 -0.126623 0.0508129 0.0101186 -0.128327 0.0450489 0.00655651 -0.129921 0.0396239 
0.00282706 -0.131342 0.0347342 -0.000754184 -0.132643 0.0305018 -0.00413781 -0.133786 0.0271458 
-0.00703788 -0.134917 0.0245876 -0.00939133 -0.136036 0.0229315 0.0227102 -0.116899 0.0754939 
0.0214573 -0.119038 0.0719604 0.0195585 -0.121121 0.0674767 0.017411 -0.123164 0.0627543 
0.0146996 -0.125114 0.0574911 0.011775 -0.126982 0.0522105 0.00844915 -0.128695 0.0468972 
0.00502772 -0.13028 0.0418589 0.00145536 -0.131659 0.0372549 -0.00199679 -0.132903 0.0331896 
-0.00528865 -0.133964 0.0298425 -0.00818763 -0.134982 0.0271568 -0.0106425 -0.135951 0.0252189 
0.0204362 -0.115646 0.0741578 0.0192481 -0.117879 0.0708836 0.0174292 -0.120022 0.0667669 
0.0153738 -0.122108 0.0624385 0.0127824 -0.124064 0.0576305 0.00999337 -0.125923 0.0527994 
0.00683228 -0.127598 0.0479249 0.00358136 -0.129133 0.0432723 0.000188604 -0.130449 0.0389699 
-0.00310893 -0.131619 0.0351095 -0.00627948 -0.132597 0.0318385 -0.00912924 -0.13351 0.0291171 
-0.0116163 -0.13435 0.0270169 0.0181103 -0.114152 0.072616 0.0169961 -0.116444 0.0696054 
0.0152692 -0.118619 0.0658565 0.0133181 -0.120724 0.0619218 0.0108589 -0.122667 0.0575657 
0.00821637 -0.124499 0.053181 0.00522888 -0.126124 0.0487423 0.00215613 -0.127601 0.0444749 
-0.00105124 -0.128846 0.0404782 -0.00418761 -0.12994 0.0368325 -0.00722928 -0.130834 0.0336548 
-0.0100175 -0.131644 0.0309212 -0.0125191 -0.132361 0.0286895 0.0158032 -0.111954 0.0704601 
0.0147716 -0.114213 0.0677093 0.0131554 -0.116346 0.0643049 0.0113276 -0.118403 0.0607348 
0.00902037 -0.120286 0.0567887 0.00654138 -0.122054 0.0528092 0.00373916 -0.123606 0.0487663 
0.000853487 -0.125009 0.044856 -0.00216395 -0.126178 0.0411548 -0.00513071 -0.127196 0.0377357 
-0.00802988 -0.128013 0.0346925 -0.0107264 -0.128735 0.0320126 -0.0131939 -0.12935 0.0297435 
0.0134998 -0.109619 0.0681844 0.0125526 -0.111826 0.0656925 0.0110507 -0.113903 0.0626282 
0.00934994 -0.1159 0.059417 0.00719847 -0.117714 0.0558728 0.0048863 -0.11941 0.0522903 
0.00227162 -0.120884 0.0486355 -0.000425232 -0.122209 0.0450767 -0.00325184 -0.123302 0.0416691 
-0.00604735 -0.124244 0.0384788 -0.00880136 -0.124985 0.0355782 -0.0114004 -0.125622 0.032965 
-0.0138241 -0.12614 0.0306768 0.0113634 -0.106865 0.065506 0.0104915 -0.108965 0.0632572 
0.00910108 -0.110943 0.0604981 0.00752486 -0.112841 0.0576062 0.00552753 -0.114561 0.0544128 
0.00337918 -0.116165 0.0511774 0.000946537 -0.117552 0.0478628 -0.00156762 -0.118796 0.0446173 
-0.00421049 -0.119814 0.0414812 -0.00683733 -0.120685 0.0385158 -0.0094428 -0.121361 0.035778 
-0.0119276 -0.121926 0.0332724 -0.014276 -0.122368 0.0310295 0.00925025 -0.104053 0.0627715 
0.00845249 -0.106038 0.0607634 0.00717312 -0.10791 0.0583048 0.00572107 -0.109705 0.0557266 
0.00387765 -0.111326 0.052877 0.00189269 -0.112836 0.0499817 -0.000358678 -0.114135 0.0470004 
-0.00269099 -0.115296 0.0440631 -0.00515111 -0.11624 0.0411954 -0.00760965 -0.117041 0.0384543 
-0.0100661 -0.117653 0.0358821 -0.0124344 -0.11815 0.0334899 -0.0147029 -0.118518 0.0313013 
0.00738651 -0.101078 0.0598388 0.00664583 -0.102924 0.0580478 0.00546254 -0.104669 0.0558508 
0.00411969 -0.106342 0.0535438 0.00241516 -0.107855 0.0509873 0.00057818 -0.109262 0.0483827 
-0.00150811 -0.110471 0.0456874 -0.00367402 -0.11155 0.0430188 -0.00596565 -0.112423 0.0403923 
-0.00826569 -0.11316 0.0378622 -0.0105769 -0.113716 0.0354607 -0.0128222 -0.114156 0.0332025 
-0.014993 -0.114466 0.0311066 0.00554493 -0.0980883 0.0568884 0.00485982 -0.0997924 0.0553125 
0.00377129 -0.101409 0.0533736 0.0025363 -0.10296 0.0513341 0.000969323 -0.104362 0.0490662 
-0.000721049 -0.105666 0.0467479 -0.00264369 -0.106785 0.0443344 -0.00464457 -0.107782 0.0419309 
-0.00676899 -0.108585 0.0395434 -0.00891138 -0.109258 0.0372231 -0.0110777 -0.109758 0.0349926 
-0.0131995 -0.110142 0.0328703 -0.0152708 -0.110395 0.0308705 0.00398575 -0.0965207 0.0539176 
0.0033384 -0.098148 0.0525278 0.0023254 -0.0996951 0.0508076 0.00117849 -0.10118 0.0489937 
-0.00027193 -0.102524 0.0469671 -0.00183686 -0.103773 0.0448889 -0.00361734 -0.104845 0.0427135 
-0.00547345 -0.105799 0.0405373 -0.00744898 -0.106567 0.03836 -0.00944805 -0.107208 0.0362308 
-0.0114785 -0.10768 0.0341655 -0.0134781 -0.108038 0.0321847 -0.015443 -0.108265 0.0302994 
0.00243858 -0.0950135 0.0509458 0.00182823 -0.0965669 0.049741 0.000889938 -0.098047 0.0482378 
-0.000169721 -0.099468 0.0466476 -0.00150448 -0.100755 0.0448604 -0.00294488 -0.101952 0.0430204 
-0.00458411 -0.102979 0.0410812 -0.00629631 -0.103892 0.0391307 -0.00812372 -0.104626 0.0371625 
-0.00998007 -0.105236 0.0352234 -0.011875 -0.105683 0.0333232 -0.0137526 -0.106015 0.0314841 
-0.0156106 -0.106218 0.0297141 0.0233733 -0.117191 0.0768782 0.0212456 -0.11869 0.0735354 
0.0186156 -0.120139 0.0688925 0.0158305 -0.121572 0.0638911 0.0126939 -0.122966 0.0580771 
0.00947108 -0.124335 0.052182 0.00608602 -0.125656 0.0461339 0.00274888 -0.126947 0.0403733 
-0.000512607 -0.12819 0.0350668 -0.00350226 -0.12944 0.0303692 -0.00612945 -0.130699 0.0264837 
-0.0082001 -0.132099 0.0233408 -0.0096416 -0.133659 0.0210374 0.0216108 -0.117814 0.076043 
0.0195697 -0.119554 0.072845 0.0170149 -0.121178 0.0684807 0.0143043 -0.122756 0.0637941 
0.0112407 -0.124231 0.0583768 0.0080906 -0.125652 0.052878 0.00477761 -0.126972 0.0472259 
0.00150208 -0.128235 0.0418104 -0.00171434 -0.129409 0.0367685 -0.00469897 -0.130562 0.0322415 
-0.00737456 -0.131686 0.0284009 -0.00958135 -0.132911 0.0251976 -0.0112582 -0.134248 0.0227147 
0.019708 -0.118068 0.0748926 0.0177769 -0.120005 0.0718574 0.0153235 -0.121772 0.0677915 
0.0127131 -0.123467 0.06344 0.00974696 -0.125002 0.0584407 0.00669263 -0.126457 0.0533604 
0.00347233 -0.127763 0.0481275 0.00027794 -0.128988 0.0430817 -0.00287553 -0.130087 0.0383311 
-0.00583627 -0.131138 0.0340035 -0.00854003 -0.132128 0.0302396 -0.0108577 -0.133178 0.0270093 
-0.012739 -0.134296 0.0243821 0.0176278 -0.117255 0.0730237 0.0158355 -0.119274 0.070179 
0.0135241 -0.121095 0.0664259 0.0110559 -0.122832 0.0624198 0.00823205 -0.124376 0.0578404 
0.00531705 -0.125825 0.0531813 0.00223045 -0.127094 0.0483721 -0.00084285 -0.128268 0.0437088 
-0.00389517 -0.129289 0.0392761 -0.00678921 -0.130246 0.0351894 -0.00947221 -0.131115 0.031564 
-0.0118357 -0.132013 0.0283839 -0.013838 -0.132942 0.0257073 0.0155021 -0.116169 0.0709705 
0.013856 -0.118238 0.0683234 0.0116971 -0.120093 0.0648867 0.00938173 -0.121852 0.0612289 
0.00671171 -0.123393 0.0570698 0.00394721 -0.124825 0.0528325 0.00100484 -0.126052 0.0484481 
-0.00193714 -0.127169 0.0441708 -0.0048785 -0.128114 0.0400628 -0.00769487 -0.128976 0.0362276 
-0.0103446 -0.12973 0.0327565 -0.0127372 -0.130481 0.0296465 -0.0148391 -0.13123 0.0269447 
0.0134023 -0.114256 0.0684529 0.0118989 -0.116291 0.0660118 0.0099 -0.118115 0.0628779 
0.00774759 -0.11984 0.0595485 0.00524719 -0.121342 0.0557759 0.00264995 -0.122731 0.051927 
-0.000129591 -0.123904 0.0479345 -0.00292043 -0.124962 0.0440197 -0.00572913 -0.125836 0.0402274 
-0.00844038 -0.126618 0.0366521 -0.0110217 -0.127277 0.0333659 -0.0133938 -0.127911 0.0303749 
-0.0155294 -0.128516 0.0277176 0.0113076 -0.112181 0.0658446 0.0099462 -0.114166 0.0636112 
0.00810877 -0.115946 0.0607774 0.00612127 -0.117628 0.0577726 0.00379357 -0.119084 0.0543799 
0.00136686 -0.120423 0.0509128 -0.00124622 -0.121541 0.0473059 -0.00388207 -0.122538 0.0437489 
-0.00655386 -0.123344 0.0402708 -0.00915463 -0.124048 0.0369568 -0.0116607 -0.124616 0.0338616 
-0.0140026 -0.125138 0.0309991 -0.0161589 -0.125607 0.0283998 0.00937445 -0.109576 0.0629876 
0.00813324 -0.111461 0.0609571 0.00644332 -0.113159 0.0583964 0.0046093 -0.114762 0.055683 
0.00244867 -0.11615 0.0526234 0.000188994 -0.117423 0.0494913 -0.0022571 -0.118479 0.0462228 
-0.00473457 -0.119415 0.0429846 -0.00726158 -0.12016 0.0397945 -0.00973783 -0.120798 0.0367305 
-0.0121464 -0.121296 0.0338347 -0.0144239 -0.121732 0.0311257 -0.0165532 -0.1221 0.0286278 
0.00746377 -0.106897 0.0600959 0.00633977 -0.108675 0.0582677 0.00479541 -0.110285 0.0559763 
0.00311329 -0.111805 0.0535497 0.00111893 -0.113121 0.0508166 -0.000974193 -0.114325 0.0480129 
-0.00325322 -0.11532 0.0450763 -0.00557184 -0.116195 0.0421516 -0.00795297 -0.116879 0.0392458 
-0.0103027 -0.117454 0.0364302 -0.0126107 -0.117884 0.0337349 -0.014819 -0.118238 0.0311828 
-0.0169147 -0.118508 0.0287925 0.00578766 -0.103964 0.0571297 0.00475321 -0.105614 0.0554892 
0.00333043 -0.107116 0.0534346 0.00177805 -0.108535 0.0512574 -6.80927e-05 -0.109768 0.0488027 
-0.00201041 -0.110895 0.0462791 -0.00413376 -0.111824 0.0436258 -0.00630151 -0.112637 0.0409722 
-0.00853938 -0.113267 0.0383183 -0.0107595 -0.113788 0.0357301 -0.012956 -0.114163 0.0332296 
-0.0150748 -0.114456 0.0308417 -0.0171058 -0.114656 0.0285811 0.00413239 -0.101009 0.0541567 
0.00318504 -0.102528 0.0527028 0.00188171 -0.103921 0.050882 0.000457097 -0.105238 0.048951 
-0.00124243 -0.106385 0.0467703 -0.00303534 -0.107434 0.0445225 -0.00500402 -0.108297 0.0421483 
-0.00702162 -0.109049 0.0397621 -0.00911647 -0.109625 0.0373572 -0.0112067 -0.110092 0.0349945 
-0.0132906 -0.110415 0.0326883 -0.0153181 -0.110648 0.0304652 -0.0172818 -0.11078 0.0283362 
0.00273791 -0.0994383 0.0512459 0.00185203 -0.100887 0.0499571 0.000642512 -0.10222 0.0483361 
-0.000679153 -0.103482 0.0466138 -0.00225501 -0.104583 0.044662 -0.00391965 -0.10559 0.0426448 
-0.0057514 -0.106418 0.0405047 -0.00763352 -0.107138 0.0383456 -0.00959517 -0.107687 0.0361563 
-0.0115603 -0.108128 0.0339942 -0.01353 -0.108426 0.0318681 -0.0154574 -0.108632 0.0298055 
-0.0173367 -0.108735 0.0278144 0.00135451 -0.0979265 0.0483377 0.00052903 -0.099308 0.0472132 
-0.000587777 -0.100583 0.0457904 -0.00180755 -0.101792 0.0442752 -0.00326071 -0.102848 0.0425503 
-0.00479798 -0.103814 0.040762 -0.00649357 -0.104609 0.0388541 -0.00824083 -0.105298 0.0369203 
-0.0100697 -0.105821 0.0349453 -0.0119099 -0.106237 0.0329825 -0.0137654 -0.106511 0.0310361 
-0.0155921 -0.106692 0.0291337 -0.0173864 -0.106767 0.0272809 0.0206105 -0.117631 0.0786129 
0.0176038 -0.119058 0.0758624 0.0142193 -0.120313 0.0716455 0.0107919 -0.121518 0.0669957 
0.00726734 -0.12261 0.0613645 0.00381395 -0.123676 0.0555714 0.000494456 -0.124694 0.0494734 
-0.00262676 -0.125724 0.0435621 -0.00543489 -0.126774 0.0379455 -0.00788634 -0.127907 0.0328031 
-0.0098622 -0.129153 0.0282929 -0.0112974 -0.130624 0.0243694 -0.0121213 -0.13235 0.0211094 
0.0189283 -0.118862 0.0770583 0.0160929 -0.120495 0.0743806 0.0128572 -0.121886 0.0703957 
0.00956479 -0.123197 0.0660223 0.00614376 -0.124328 0.0607683 0.00277398 -0.125403 0.0553594 
-0.000499339 -0.126373 0.049659 -0.00360319 -0.127327 0.0441057 -0.00643948 -0.128255 0.0387847 
-0.00896727 -0.129236 0.0338634 -0.0110837 -0.130289 0.0294751 -0.0127396 -0.131524 0.0255933 
-0.0138748 -0.132966 0.0222841 0.0171244 -0.119675 0.0751669 0.0144855 -0.121475 0.072581 
0.0114264 -0.122978 0.0688499 0.00829614 -0.124377 0.0647757 0.00500444 -0.125538 0.0599241 
0.00174271 -0.126617 0.0549256 -0.00146259 -0.127539 0.0496509 -0.00452832 -0.128418 0.0444847 
-0.0073737 -0.129229 0.0394898 -0.00995796 -0.130063 0.0348211 -0.0121941 -0.130928 0.0305873 
-0.0140453 -0.131932 0.0267795 -0.0154616 -0.133094 0.0234535 0.0151781 -0.119261 0.072646 
0.012758 -0.121122 0.070189 0.00991017 -0.122671 0.0667322 0.00697935 -0.124102 0.0629738 
0.00386038 -0.125269 0.0585316 0.000751158 -0.126337 0.0539519 -0.0023397 -0.127217 0.0491132 
-0.0053198 -0.128034 0.0443518 -0.00812503 -0.128752 0.0397123 -0.0107114 -0.129467 0.0353364 
-0.013006 -0.130179 0.031312 -0.0149776 -0.130992 0.0276433 -0.016584 -0.131918 0.0243765 
0.0131953 -0.118531 0.0699638 0.0109996 -0.120428 0.067645 0.00837199 -0.122004 0.0644678 
0.00565022 -0.123454 0.0610293 0.0027151 -0.124621 0.0569986 -0.000230215 -0.125674 0.0528397 
-0.00319473 -0.126514 0.0484397 -0.00607701 -0.127273 0.0440876 -0.00882945 -0.127903 0.039811 
-0.011404 -0.128506 0.0357383 -0.0137414 -0.129075 0.0319375 -0.015814 -0.129705 0.0284243 
-0.0175873 -0.130406 0.0252362 0.0112567 -0.116835 0.0669831 0.00926865 -0.118692 0.0648221 
0.00685688 -0.120243 0.0619164 0.00434465 -0.121669 0.0587821 0.00160469 -0.122813 0.0551298 
-0.00116109 -0.123839 0.0513584 -0.00397548 -0.124643 0.0473627 -0.00673185 -0.125353 0.0433935 
-0.00939659 -0.125919 0.039466 -0.0119176 -0.126439 0.0356965 -0.0142469 -0.1269 0.0321378 
-0.0163568 -0.127392 0.0288125 -0.0182189 -0.127919 0.025751 0.00932672 -0.114951 0.0639441 
0.00754301 -0.116752 0.0619448 0.00534628 -0.118268 0.0593089 0.00304368 -0.119662 0.0564757 
0.000501086 -0.12078 0.0531955 -0.00208211 -0.121776 0.049805 -0.00474174 -0.122543 0.046207 
-0.00736671 -0.123208 0.0426155 -0.00993694 -0.123713 0.0390344 -0.0123962 -0.124156 0.0355682 
-0.0147074 -0.124516 0.0322551 -0.0168424 -0.124878 0.029124 -0.0187779 -0.125241 0.0261984 
0.0075628 -0.112431 0.0608295 0.00594745 -0.114135 0.0589973 0.00393925 -0.115581 0.056609 
0.00182453 -0.116913 0.0540469 -0.000531676 -0.117986 0.0510909 -0.00293783 -0.118939 0.0480322 
-0.005438 -0.119669 0.0447803 -0.00792098 -0.120294 0.0415217 -0.0103768 -0.120753 0.0382526 
-0.012747 -0.121139 0.0350677 -0.0150029 -0.121428 0.0319952 -0.0171148 -0.121697 0.0290666 