# vtk DataFile Version 2.0
vtk output
ASCII
DATASET RECTILINEAR_GRID
DIMENSIONS 13 13 13
X_COORDINATES 13 float
5 5.20833 5.41667 5.625 5.83333 6.04167 6.25 6.45833 6.66667 
6.875 7.08333 7.29167 7.5 
Y_COORDINATES 13 float
5 5.20833 5.41667 5.625 5.83333 6.04167 6.25 6.45833 6.66667 
6.875 7.08333 7.29167 7.5 
Z_COORDINATES 13 float
-2.5 -2.29167 -2.08333 -1.875 -1.66667 -1.45833 -1.25 -1.04167 -0.833333 
-0.625 -0.416667 -0.208333 0 
POINT_DATA 2197
VECTORS grad float
0.0169489 -0.0786453 0.00890014 0.0209003 -0.0873597 0.00736662 0.0249964 -0.0960443 0.00573939 
0.0286653 -0.104757 0.0033829 0.0319863 -0.113492 0.000432179 0.0339997 -0.12198 -0.00439212 
0.0351114 -0.130299 -0.0105086 0.0338354 -0.137544 -0.0203152 0.0311729 -0.144166 -0.0322646 
0.025061 -0.148422 -0.0500207 0.0172766 -0.151531 -0.070592 0.00503265 -0.151227 -0.0977616 
-0.00899514 -0.149557 -0.127571 0.00791609 -0.0831172 0.00873194 0.0119224 -0.0921124 0.00561249 
0.0160172 -0.10108 0.00229227 0.0197301 -0.110093 -0.00194885 0.023132 -0.119143 -0.00694032 
0.0254711 -0.128019 -0.0140247 0.0270773 -0.136775 -0.0225525 0.0267542 -0.144682 -0.0348837 
0.0253107 -0.152096 -0.0494235 0.0209061 -0.157613 -0.0696151 0.0150657 -0.16221 -0.0925471 
0.00492377 -0.164006 -0.121646 -0.00693885 -0.164681 -0.153211 -0.00140435 -0.0876005 0.00870897 
0.00266677 -0.0966436 0.00412709 0.00676075 -0.105657 -0.000709564 0.010498 -0.114741 -0.00658047 
0.0139446 -0.123881 -0.0132941 0.0165172 -0.132948 -0.0222089 0.0184871 -0.141963 -0.0326418 
0.0188812 -0.15041 -0.0468664 0.0183603 -0.158526 -0.0632927 0.0152681 -0.165293 -0.0851246 
0.0109292 -0.171407 -0.109577 0.00249959 -0.175419 -0.139724 -0.00756637 -0.17859 -0.172148 
-0.0105185 -0.0922539 0.0089497 -0.00639116 -0.101079 0.00310163 -0.00232103 -0.109892 -0.00300426 
0.00138791 -0.118814 -0.0101819 0.00480253 -0.127823 -0.0182329 0.00746487 -0.136868 -0.0284879 
0.0096084 -0.145936 -0.040263 0.0104226 -0.154703 -0.055691 0.010465 -0.163293 -0.0732401 
0.0082377 -0.171024 -0.0958121 0.00490995 -0.178337 -0.120819 -0.00223475 -0.184148 -0.150911 
-0.0109062 -0.189359 -0.183037 -0.0194645 -0.0970459 0.00940532 -0.0152879 -0.105438 0.00245094 
-0.0112605 -0.113848 -0.00472276 -0.00762272 -0.122417 -0.012944 -0.00430251 -0.131117 -0.0220187 
-0.00166758 -0.139967 -0.0332146 0.000494777 -0.14892 -0.0458733 0.00148704 -0.157827 -0.0619424 
0.00179987 -0.166706 -0.0799917 7.27605e-05 -0.175165 -0.10257 -0.00264343 -0.183419 -0.127345 
-0.00885142 -0.190691 -0.156483 -0.0164561 -0.19757 -0.187366 -0.0275917 -0.101997 0.0100354 
-0.0234366 -0.109701 0.00222609 -0.0195194 -0.117483 -0.00573907 -0.0160315 -0.125484 -0.0146791 
-0.0128935 -0.133662 -0.0244135 -0.010411 -0.142087 -0.0361169 -0.00838046 -0.150681 -0.0491782 
-0.00741681 -0.159414 -0.0653269 -0.00707263 -0.168226 -0.0832685 -0.0085726 -0.176913 -0.105172 
-0.0109667 -0.185539 -0.128997 -0.0164773 -0.193515 -0.156427 -0.0232345 -0.201231 -0.185298 
-0.0351541 -0.107059 0.0107858 -0.0310695 -0.1139 0.00229492 -0.0273091 -0.120897 -0.00627112 
-0.0240254 -0.128179 -0.0157061 -0.02113 -0.135692 -0.025849 -0.0188861 -0.143533 -0.037761 
-0.0170913 -0.1516 -0.0508931 -0.0162988 -0.159941 -0.0667344 -0.0160882 -0.16844 -0.084149 
-0.0175493 -0.177011 -0.104908 -0.019821 -0.185616 -0.127287 -0.0247993 -0.193775 -0.152488 
-0.0308602 -0.201755 -0.178817 -0.0413229 -0.112001 0.011502 -0.0374484 -0.117811 0.00261443 
-0.0339495 -0.123872 -0.00627738 -0.0309548 -0.130279 -0.0159187 -0.0283709 -0.136966 -0.0261707 
-0.0264304 -0.144031 -0.0379683 -0.0249336 -0.151357 -0.0508319 -0.024376 -0.159018 -0.0660127 
-0.0243638 -0.166873 -0.082539 -0.0258447 -0.174874 -0.101815 -0.0280495 -0.182946 -0.122425 
-0.0325449 -0.190646 -0.145164 -0.0379565 -0.198197 -0.168755 -0.0466823 -0.116873 0.0121983 
-0.0430993 -0.121555 0.0030795 -0.0399227 -0.126592 -0.00597834 -0.0372662 -0.132032 -0.0156585 
-0.0350337 -0.137802 -0.0258456 -0.0334343 -0.14398 -0.0373413 -0.0322716 -0.150441 -0.0497396 
-0.0319861 -0.157254 -0.0640547 -0.0322098 -0.164272 -0.0794828 -0.0337444 -0.17144 -0.097081 
-0.0359147 -0.178682 -0.115731 -0.0399559 -0.18555 -0.135874 -0.0447454 -0.192268 -0.156614 
-0.0503505 -0.12114 0.0126752 -0.0472117 -0.124682 0.00359575 -0.0444597 -0.128667 -0.00538884 
-0.0422064 -0.133096 -0.0148823 -0.0403593 -0.137888 -0.0247902 -0.039108 -0.143093 -0.0357843 
-0.0382678 -0.148583 -0.0475275 -0.0382212 -0.154403 -0.0608251 -0.0386353 -0.160414 -0.0750254 
-0.0401713 -0.166534 -0.0909017 -0.0422511 -0.172706 -0.107591 -0.0458268 -0.178477 -0.125275 
-0.050001 -0.184087 -0.143358 -0.0531986 -0.125112 0.0130458 -0.0505782 -0.12751 0.00413682 
-0.0483005 -0.13043 -0.00465852 -0.0464816 -0.133826 -0.0138559 -0.0450365 -0.13761 -0.0233808 
-0.0441368 -0.1418 -0.0337764 -0.0436133 -0.146269 -0.0447724 -0.0437896 -0.151025 -0.056979 
-0.0443722 -0.155948 -0.0698886 -0.0458839 -0.160914 -0.0840218 -0.0478461 -0.165901 -0.0987484 
-0.050951 -0.170446 -0.114042 -0.0545131 -0.174813 -0.129562 -0.054469 -0.127999 0.0131378 
-0.0524483 -0.129398 0.00459799 -0.0506942 -0.131356 -0.00383747 -0.0493291 -0.133797 -0.0125929 
-0.0482811 -0.13663 -0.0216089 -0.0477037 -0.139844 -0.0313155 -0.0474509 -0.143321 -0.0414982 
-0.0477896 -0.147036 -0.0526102 -0.0484719 -0.150889 -0.0642619 -0.049903 -0.154731 -0.0767873 
-0.0516972 -0.158566 -0.0897363 -0.054352 -0.161948 -0.102951 -0.0573511 -0.165149 -0.116272 
-0.0551083 -0.130452 0.0131184 -0.0537199 -0.130911 0.0050272 -0.052509 -0.131949 -0.00298013 
-0.0516055 -0.133464 -0.0112352 -0.0509525 -0.135368 -0.0196921 -0.0506857 -0.137622 -0.0286734 
-0.0506852 -0.140118 -0.0380163 -0.0511623 -0.142802 -0.0480323 -0.0519166 -0.145594 -0.0584392 
-0.0532446 -0.148322 -0.0694109 -0.0548506 -0.15102 -0.0806562 -0.0570637 -0.153265 -0.0919172 
-0.0595195 -0.155328 -0.103184 0.0152802 -0.0788185 0.00560501 0.0190985 -0.0892143 0.00407834 
0.0228407 -0.0997169 0.00251458 0.0257409 -0.110483 0.000387711 0.027955 -0.121465 -0.00219798 
0.0281947 -0.132473 -0.00635109 0.0270727 -0.143499 -0.0115852 0.0227343 -0.153604 -0.0200744 
0.0165283 -0.163173 -0.0304538 0.00640187 -0.170197 -0.0460999 -0.00562537 -0.175986 -0.0642997 
-0.0212422 -0.177813 -0.0884331 -0.0382949 -0.178056 -0.11494 0.00464896 -0.0831702 0.00549603 
0.00840985 -0.0937235 0.00232216 0.0120001 -0.104335 -0.00102474 0.0147732 -0.115153 -0.00517982 
0.0168803 -0.12614 -0.00999342 0.0172892 -0.137123 -0.016661 0.0165271 -0.148104 -0.0246071 
0.0131151 -0.158278 -0.0359554 0.00816438 -0.167983 -0.0492793 -6.79803e-05 -0.17555 -0.0676306 
-0.00989146 -0.182081 -0.0884195 -0.0230387 -0.185281 -0.114478 -0.0375156 -0.187148 -0.142645 
-0.00617452 -0.0874383 0.0055911 -0.00239947 -0.097881 0.000898285 0.00110519 -0.108326 -0.00404398 
0.00380701 -0.118926 -0.00994973 0.00585466 -0.129651 -0.0166405 0.00642973 -0.140367 -0.025346 
0.00598926 -0.151078 -0.0354411 0.00334689 -0.161149 -0.0489642 -0.000574047 -0.170847 -0.064478 
-0.00726946 -0.178874 -0.0847585 -0.0153101 -0.186089 -0.10735 -0.026395 -0.190646 -0.134668 
-0.0386977 -0.194139 -0.163877 -0.0166178 -0.0918831 0.0059851 -0.0127779 -0.101923 -2.37104e-05 
-0.00931837 -0.11194 -0.0063016 -0.00666736 -0.122082 -0.0136147 -0.00467516 -0.132328 -0.0217713 
-0.0039904 -0.142584 -0.0319931 -0.00420732 -0.152848 -0.0436392 -0.00628838 -0.162638 -0.058627 
-0.00945187 -0.172155 -0.0755552 -0.0149859 -0.180408 -0.0969189 -0.0216693 -0.188049 -0.120433 
-0.0310916 -0.193597 -0.148127 -0.0416095 -0.198307 -0.177492 -0.0267512 -0.0964719 0.00662266 
-0.0228052 -0.105872 -0.000536769 -0.0193578 -0.115244 -0.00793861 -0.016741 -0.124736 -0.0163794 
-0.014801 -0.134326 -0.0256667 -0.0140525 -0.143964 -0.0369796 -0.0141258 -0.153635 -0.0496897 
-0.0158153 -0.163002 -0.0655634 -0.0184433 -0.172193 -0.0832743 -0.0231219 -0.180484 -0.105032 
-0.0287949 -0.188339 -0.128751 -0.0368803 -0.19458 -0.1561 -0.0459308 -0.200175 -0.184901 
-0.0358142 -0.101309 0.00743428 -0.0318055 -0.1098 -0.000615513 -0.0284015 -0.118303 -0.00885239 
-0.0258522 -0.126946 -0.0180782 -0.0239994 -0.135704 -0.0281098 -0.0232549 -0.14455 -0.040054 
-0.0232748 -0.153457 -0.0533173 -0.0247227 -0.162186 -0.0694883 -0.0269998 -0.170811 -0.0873478 
-0.0310578 -0.17879 -0.108806 -0.0359793 -0.186455 -0.132009 -0.042972 -0.192833 -0.158277 
-0.0507931 -0.198697 -0.185771 -0.0441389 -0.106317 0.00836593 -0.0400974 -0.113712 -0.000394732 
-0.0367585 -0.121191 -0.0092674 -0.0342998 -0.12885 -0.019042 -0.0325583 -0.136653 -0.0295516 
-0.0318645 -0.144588 -0.0418098 -0.0318931 -0.152612 -0.055274 -0.0332029 -0.160555 -0.0713363 
-0.0352566 -0.16845 -0.0889072 -0.0388558 -0.175874 -0.109588 -0.0432044 -0.183071 -0.131777 
-0.0492725 -0.189204 -0.156456 -0.0560286 -0.194912 -0.18213 -0.0507554 -0.111311 0.00922998 
-0.0468369 -0.117446 5.57898e-05 -0.0436671 -0.123768 -0.00916414 -0.0413742 -0.13032 -0.0191807 
-0.039796 -0.137059 -0.0298465 -0.0392005 -0.143961 -0.0420655 -0.0392827 -0.150975 -0.0553559 
-0.0405116 -0.157957 -0.0709065 -0.0424063 -0.164921 -0.0877695 -0.0456262 -0.171504 -0.107249 
-0.0494886 -0.177902 -0.127997 -0.0547361 -0.183363 -0.150694 -0.0605375 -0.18845 -0.174171 
-0.05638 -0.116298 0.0100548 -0.0526751 -0.121077 0.000639714 -0.0497348 -0.126164 -0.00875994 
-0.0476514 -0.131539 -0.0188404 -0.0462664 -0.137149 -0.0294754 -0.045797 -0.142948 -0.0414503 
-0.045959 -0.148877 -0.0543492 -0.0471402 -0.154799 -0.0691541 -0.0489131 -0.160715 -0.0850658 
-0.0517998 -0.16629 -0.103097 -0.0552266 -0.171698 -0.122156 -0.0597136 -0.176239 -0.142645 
-0.0646246 -0.180433 -0.163705 -0.0599991 -0.120735 0.0106099 -0.0567028 -0.124178 0.00123792 
-0.0541184 -0.128039 -0.00808912 -0.0523268 -0.132237 -0.0179903 -0.0511811 -0.136711 -0.0283593 
-0.0508608 -0.141389 -0.0398596 -0.0511098 -0.146206 -0.0521402 -0.0522429 -0.151017 -0.0659919 
-0.0538896 -0.155824 -0.0807559 -0.0564498 -0.160299 -0.0971922 -0.0594531 -0.164612 -0.114439 
-0.0632409 -0.168109 -0.132676 -0.0673424 -0.171279 -0.151309 -0.0626459 -0.124907 0.0110344 
-0.0598526 -0.127024 0.00184305 -0.0576856 -0.129661 -0.00728902 -0.0562255 -0.132683 -0.0168931 
-0.0553415 -0.136017 -0.0268818 -0.0551815 -0.139564 -0.037796 -0.0555208 -0.143257 -0.0493484 
-0.0566059 -0.146933 -0.0621463 -0.058124 -0.150601 -0.0756675 -0.060361 -0.153932 -0.0904371 
-0.0629468 -0.157099 -0.105812 -0.066065 -0.159491 -0.121777 -0.0693963 -0.161574 -0.137979 
-0.0634865 -0.127981 0.0111351 -0.0613121 -0.128971 0.0023319 -0.0596385 -0.130534 -0.00642496 
-0.0585559 -0.132503 -0.0155726 -0.0579548 -0.134804 -0.0250387 -0.0579592 -0.137314 -0.0352525 
-0.058381 -0.139969 -0.0459818 -0.0594086 -0.1426 -0.0576808 -0.060788 -0.145216 -0.0699428 
-0.0627148 -0.147501 -0.0831101 -0.0649069 -0.149625 -0.0967164 -0.0674415 -0.151037 -0.110614 
-0.070113 -0.152163 -0.124627 -0.0636045 -0.130617 0.0111064 -0.0620954 -0.130559 0.00277422 
-0.0609457 -0.131108 -0.00553531 -0.0602589 -0.132075 -0.0141628 -0.0599492 -0.133382 -0.0230494 
-0.0601195 -0.134894 -0.032517 -0.0606208 -0.136547 -0.0423854 -0.0615873 -0.138166 -0.0529673 
-0.0628239 -0.139765 -0.0639636 -0.0644455 -0.141044 -0.0755544 -0.0662538 -0.142168 -0.0874333 
-0.0682389 -0.142648 -0.099344 -0.0702948 -0.14287 -0.111267 0.0137545 -0.0789424 0.00170276 
0.0175238 -0.0910597 0.000233014 0.0210636 -0.103473 -0.00127666 0.0234485 -0.116487 -0.00323012 
0.0248924 -0.12999 -0.00554516 0.0237837 -0.143942 -0.0091433 0.0209147 -0.158202 -0.0136263 
0.0140066 -0.171801 -0.0209547 0.00475326 -0.185015 -0.0299352 -0.00898938 -0.195372 -0.0437997 
-0.0249086 -0.204343 -0.0600322 -0.0437413 -0.208361 -0.0819786 -0.0637393 -0.210398 -0.106211 
0.00150477 -0.0830944 0.00172731 0.00505335 -0.0952412 -0.00137454 0.00822442 -0.107575 -0.00468079 
0.010229 -0.12036 -0.00872582 0.011283 -0.133511 -0.0133728 0.0100954 -0.146943 -0.0196632 
0.0073619 -0.160568 -0.027087 0.00131999 -0.173518 -0.0375687 -0.00664298 -0.186074 -0.0498262 
-0.0182071 -0.196202 -0.0666997 -0.0315173 -0.205153 -0.0858112 -0.0473211 -0.210024 -0.10982 
-0.0641223 -0.213263 -0.135787 -0.0108388 -0.0870851 0.0019974 -0.00736679 -0.0989572 -0.00260622 
-0.00441874 -0.1109 -0.00751603 -0.00264426 -0.123147 -0.0133594 -0.00182601 -0.135641 -0.0199634 
-0.00298682 -0.148285 -0.028426 -0.00551248 -0.161031 -0.0381703 -0.0107794 -0.173155 -0.0510534 
-0.017638 -0.184918 -0.0657591 -0.0274321 -0.194719 -0.0848451 -0.0386493 -0.203568 -0.106055 
-0.0519892 -0.20917 -0.131612 -0.0661781 -0.213473 -0.158909 -0.0226284 -0.0912815 0.00258353 
-0.019114 -0.102563 -0.0033206 -0.0162753 -0.113837 -0.00957292 -0.0146273 -0.125309 -0.0168644 
-0.0139495 -0.136942 -0.0250024 -0.0150482 -0.148639 -0.0350975 -0.0173719 -0.160379 -0.0465422 
-0.0220047 -0.171568 -0.0610994 -0.0279782 -0.182438 -0.077464 -0.0363722 -0.191736 -0.0979437 
-0.0459396 -0.200272 -0.120419 -0.0572803 -0.206216 -0.146774 -0.0693304 -0.211125 -0.174681 
-0.0339667 -0.0956454 0.00342719 -0.030313 -0.106078 -0.00361347 -0.027491 -0.116457 -0.0109956 
-0.0258851 -0.126962 -0.0194497 -0.02527 -0.137568 -0.0287772 -0.0262777 -0.148188 -0.040065 
-0.0284044 -0.158818 -0.0527048 -0.0325178 -0.168983 -0.0683436 -0.0377849 -0.178879 -0.0857238 
-0.0450801 -0.187531 -0.10693 -0.0533587 -0.19558 -0.129992 -0.0630791 -0.201551 -0.156532 
-0.0733762 -0.206691 -0.184463 -0.0439839 -0.100367 0.00443769 -0.0402006 -0.109666 -0.00348469 
-0.0373833 -0.118928 -0.0117096 -0.0358002 -0.128289 -0.020981 -0.0352226 -0.13773 -0.0311051 
-0.0361438 -0.147161 -0.0431141 -0.0380987 -0.156584 -0.056423 -0.0417865 -0.165606 -0.0725358 
-0.0464805 -0.174395 -0.0902768 -0.0528806 -0.182158 -0.111494 -0.0601079 -0.189424 -0.134397 
-0.0684618 -0.194952 -0.160354 -0.0772662 -0.199785 -0.187532 -0.0530902 -0.105335 0.00556326 
-0.0491837 -0.113303 -0.00306512 -0.046363 -0.121297 -0.0119349 -0.0447894 -0.129393 -0.0217855 
-0.0442319 -0.137572 -0.0324352 -0.0450699 -0.145735 -0.0448401 -0.0468702 -0.153886 -0.0584554 
-0.0501969 -0.161682 -0.0746233 -0.05441 -0.169272 -0.0922735 -0.0600554 -0.17598 -0.113009 
-0.0663951 -0.182259 -0.135239 -0.0735575 -0.18702 -0.160082 -0.0810488 -0.191174 -0.18597 
-0.0601695 -0.110409 0.00659579 -0.0563096 -0.116884 -0.00244803 -0.0535829 -0.123494 -0.0116763 
-0.0520762 -0.130239 -0.0217955 -0.0515638 -0.137096 -0.0326404 -0.0523362 -0.14394 -0.0450708 
-0.0539947 -0.150775 -0.0585945 -0.0569891 -0.157278 -0.0743754 -0.0607594 -0.163589 -0.091467 
-0.0657128 -0.169092 -0.111213 -0.0712399 -0.174205 -0.132246 -0.0773185 -0.177933 -0.155421 
-0.0836177 -0.181106 -0.179453 -0.0660721 -0.115545 0.0075743 -0.0623571 -0.120434 -0.00171625 
-0.0597808 -0.125591 -0.0111367 -0.0583746 -0.130936 -0.0213441 -0.0579218 -0.136435 -0.0321925 
-0.0586389 -0.14193 -0.0444332 -0.0601628 -0.147423 -0.0576341 -0.0628417 -0.152595 -0.0727713 
-0.0661913 -0.157579 -0.0890328 -0.0704893 -0.161794 -0.107496 -0.0752472 -0.165634 -0.127027 
-0.0803046 -0.168174 -0.148212 -0.0854818 -0.170193 -0.170059 -0.0696481 -0.120193 0.00824754 
-0.066314 -0.123546 -0.00101167 -0.064033 -0.127296 -0.0103726 -0.0628183 -0.131286 -0.0204189 
-0.0624726 -0.135473 -0.0310238 -0.0631586 -0.139671 -0.0428234 -0.0645563 -0.143876 -0.0554471 
-0.0669266 -0.147768 -0.0696877 -0.0698618 -0.151477 -0.0848673 -0.0735308 -0.154446 -0.101813 
-0.0775556 -0.157057 -0.119615 -0.0816827 -0.158454 -0.138617 -0.0858507 -0.159366 -0.158099 
-0.072096 -0.124605 0.00877276 -0.0692573 -0.126447 -0.000320264 -0.0673417 -0.128809 -0.00949951 
-0.0663628 -0.131467 -0.0192641 -0.0661472 -0.134366 -0.0295056 -0.066814 -0.137291 -0.0407423 
-0.0680892 -0.140234 -0.0526652 -0.0701544 -0.14287 -0.0658868 -0.0726783 -0.145329 -0.0798624 
-0.0757311 -0.147076 -0.0951767 -0.0790403 -0.148478 -0.11114 -0.0822812 -0.148754 -0.127865 
-0.0854947 -0.14858 -0.144896 -0.0725066 -0.127902 0.00893711 -0.07031 -0.128485 0.000214426 
-0.0688573 -0.129657 -0.00860142 -0.0681794 -0.131156 -0.0179179 -0.0681328 -0.132923 -0.0276424 
-0.0688069 -0.13473 -0.0381834 -0.069978 -0.136565 -0.0492875 -0.0717644 -0.138113 -0.0614113 
-0.0739083 -0.139494 -0.0741273 -0.0764088 -0.140217 -0.0878221 -0.0790824 -0.140619 -0.101991 
-0.0815764 -0.140015 -0.116578 -0.0839986 -0.139009 -0.13133 -0.0721021 -0.130752 0.00895711 
-0.0706065 -0.130179 0.00068643 -0.0696556 -0.130238 -0.00769332 -0.0693048 -0.130649 -0.0164953 
-0.0694428 -0.131346 -0.0256412 -0.0701349 -0.132097 -0.0354334 -0.071209 -0.132886 -0.0456714 
-0.0727273 -0.133412 -0.056666 -0.0745036 -0.133786 -0.0681 -0.0764776 -0.133562 -0.0801801 
-0.0785473 -0.13305 -0.0925735 -0.0803503 -0.131662 -0.105075 -0.0820464 -0.129923 -0.11762 
0.0122704 -0.0790519 -0.00237523 0.0160149 -0.0929024 -0.00377355 0.0193961 -0.107252 -0.00523186 
0.0213392 -0.12257 -0.00702818 0.0221103 -0.138676 -0.00909991 0.0197763 -0.155694 -0.0121767 
0.015301 -0.17334 -0.0159467 0.00596589 -0.190616 -0.0221594 -0.00619111 -0.207678 -0.0297907 
-0.0234346 -0.221531 -0.0419686 -0.0431444 -0.23383 -0.0563509 -0.0651474 -0.240056 -0.0763561 
-0.0880677 -0.243852 -0.0986105 -0.00160382 -0.0829813 -0.00219565 0.00174204 -0.0967319 -0.00518886 
0.00451858 -0.110812 -0.00843498 0.00580426 -0.125609 -0.012363 0.00587517 -0.140991 -0.0168466 
0.00318761 -0.15697 -0.0227713 -0.00140235 -0.173361 -0.0296899 -0.00994128 -0.189233 -0.0393388 
-0.0207732 -0.204804 -0.0505732 -0.0355256 -0.217641 -0.0660737 -0.0521787 -0.229152 -0.0836427 
-0.0705381 -0.235771 -0.105887 -0.0895798 -0.240433 -0.130001 -0.0154723 -0.0866766 -0.00173404 
-0.0123055 -0.0999869 -0.00619053 -0.00990456 -0.113446 -0.0110279 -0.00902612 -0.127378 -0.0167807 
-0.00938821 -0.141695 -0.0232795 -0.0122092 -0.156346 -0.0314893 -0.0167259 -0.171226 -0.0408792 
-0.0244981 -0.185529 -0.0531401 -0.0341606 -0.199495 -0.0670681 -0.0469072 -0.211219 -0.0850628 
-0.0611491 -0.221857 -0.105029 -0.0766279 -0.228649 -0.129135 -0.0926016 -0.233903 -0.154896 
-0.0286134 -0.090613 -0.000944508 -0.0254355 -0.103143 -0.00666714 -0.0232206 -0.11569 -0.0128367 
-0.0225597 -0.128523 -0.020061 -0.023165 -0.141588 -0.0281446 -0.0259908 -0.154791 -0.0380858 
-0.0303481 -0.16809 -0.0493082 -0.0374331 -0.180786 -0.0634377 -0.0461021 -0.193133 -0.0792551 
-0.0572265 -0.203626 -0.0989449 -0.0695415 -0.213221 -0.120512 -0.0826967 -0.219754 -0.145835 
-0.0961879 -0.225063 -0.17266 -0.0411616 -0.0947459 0.00011223 -0.037818 -0.106217 -0.00671593 
-0.0356346 -0.117617 -0.0140066 -0.0350366 -0.12916 -0.0224143 -0.0357305 -0.14082 -0.0317322 
-0.0384565 -0.152478 -0.0429537 -0.042584 -0.164136 -0.055488 -0.0490467 -0.175197 -0.0708803 
-0.0568655 -0.185913 -0.0879322 -0.0666803 -0.195078 -0.108666 -0.077463 -0.203492 -0.131184 
-0.0887481 -0.209414 -0.157199 -0.100234 -0.214339 -0.184613 -0.0521384 -0.0993519 0.00132663 
-0.0486033 -0.109464 -0.00636185 -0.046394 -0.119498 -0.0144927 -0.045785 -0.129598 -0.0237402 
-0.0464798 -0.139752 -0.0338975 -0.0490457 -0.149814 -0.0459203 -0.0529022 -0.159813 -0.0592296 
-0.0587802 -0.169214 -0.0752609 -0.0658319 -0.178268 -0.0928729 -0.0745116 -0.185958 -0.113909 
-0.0839807 -0.192988 -0.136605 -0.0936607 -0.197882 -0.162497 -0.103425 -0.201921 -0.189666 
-0.0620316 -0.104284 0.00264977 -0.058287 -0.11283 -0.00572993 -0.0560125 -0.121347 -0.0145073 
-0.0553413 -0.129899 -0.0243575 -0.0559765 -0.138479 -0.0350819 -0.0583409 -0.146909 -0.0475756 
-0.0618981 -0.155235 -0.0612896 -0.067217 -0.162958 -0.0775298 -0.073559 -0.17033 -0.095237 
-0.0812239 -0.176445 -0.116064 -0.0895301 -0.18195 -0.138404 -0.0977879 -0.185528 -0.16361 
-0.106026 -0.188334 -0.189962 -0.0695784 -0.109446 0.00385676 -0.0658066 -0.116266 -0.00493598 
-0.063556 -0.12317 -0.0140801 -0.06286 -0.130123 -0.0242228 -0.0634309 -0.137117 -0.0351792 
-0.0655778 -0.143933 -0.0477599 -0.0688116 -0.150627 -0.061461 -0.0735656 -0.156709 -0.0774318 
-0.0792024 -0.162435 -0.0947208 -0.0858878 -0.166958 -0.114752 -0.0930815 -0.170897 -0.136113 
-0.100014 -0.173038 -0.159916 -0.106842 -0.174459 -0.184695 -0.0757626 -0.114741 0.00499632 
-0.0720697 -0.119743 -0.00404796 -0.0698946 -0.124977 -0.0133963 -0.0691956 -0.130302 -0.0236514 
-0.0696995 -0.135703 -0.0346453 -0.0716195 -0.140916 -0.0470901 -0.074516 -0.146001 -0.0605357 
-0.0787017 -0.150464 -0.0759595 -0.0836358 -0.154565 -0.092532 -0.0893623 -0.157487 -0.111427 
-0.0954728 -0.159837 -0.131447 -0.101137 -0.16047 -0.153431 -0.106622 -0.160415 -0.176199 
-0.0792971 -0.119611 0.00579915 -0.07596 -0.122877 -0.00322992 -0.0740216 -0.126519 -0.0125354 
-0.0734173 -0.130309 -0.0226509 -0.0739 -0.134217 -0.0334264 -0.0756142 -0.137949 -0.0454655 
-0.0781777 -0.14156 -0.0583759 -0.0818019 -0.144557 -0.0729576 -0.0860419 -0.147199 -0.0885099 
-0.090844 -0.148705 -0.10595 -0.0959187 -0.149659 -0.124307 -0.100422 -0.149007 -0.144135 
-0.104697 -0.147712 -0.164553 -0.081547 -0.124275 0.00643873 -0.0786998 -0.125844 -0.00244581 
-0.0770763 -0.127934 -0.0115884 -0.076614 -0.130231 -0.0214422 -0.0770978 -0.132697 -0.0318755 
-0.0786165 -0.135007 -0.0433779 -0.0808489 -0.137208 -0.0556176 -0.083915 -0.138816 -0.0692143 
-0.087465 -0.140078 -0.0835988 -0.0913596 -0.140256 -0.0994312 -0.0954213 -0.139909 -0.115966 
-0.0988164 -0.13808 -0.133477 -0.101945 -0.135658 -0.151379 -0.0815274 -0.127803 0.00668259 
-0.0793469 -0.127983 -0.00186002 -0.0781556 -0.128764 -0.0106589 -0.0779177 -0.129794 -0.0200796 
-0.0784568 -0.131027 -0.030007 -0.0798261 -0.132131 -0.0408231 -0.081768 -0.133146 -0.0522522 
-0.0843335 -0.133612 -0.064754 -0.0872613 -0.133759 -0.0778786 -0.0903583 -0.132917 -0.0920677 
-0.0935373 -0.131594 -0.106773 -0.0960139 -0.128962 -0.12205 -0.0982094 -0.125806 -0.137555 
-0.0806001 -0.130878 0.00676816 -0.0791568 -0.129791 -0.00135354 -0.0784446 -0.12936 -0.00973637 
-0.0784642 -0.129212 -0.0186554 -0.0790803 -0.129296 -0.0280114 -0.0803186 -0.129282 -0.0380814 
-0.081986 -0.1292 -0.048644 -0.0840743 -0.128625 -0.0600069 -0.086407 -0.127762 -0.0718347 
-0.0887503 -0.126021 -0.0843666 -0.0910987 -0.123854 -0.0972399 -0.0927326 -0.120568 -0.110315 
-0.0940807 -0.116836 -0.123472 0.0109519 -0.0788019 -0.00709999 0.0145596 -0.0942269 -0.00855738 
0.0177461 -0.110395 -0.0102127 0.0193333 -0.12797 -0.0122457 0.0196176 -0.146689 -0.0145865 
0.0163654 -0.166926 -0.0178033 0.0106745 -0.188209 -0.0216243 -0.00068741 -0.209607 -0.0275707 
-0.0153422 -0.231071 -0.0347512 -0.0358574 -0.249013 -0.0460927 -0.0592139 -0.265246 -0.0594517 
-0.0844895 -0.274016 -0.0782094 -0.110533 -0.279801 -0.0991266 -0.00436487 -0.0824703 -0.00654962 
-0.00138112 -0.0976705 -0.00945714 0.000914563 -0.113383 -0.0127713 0.00150267 -0.130139 -0.01682 
0.000699427 -0.147745 -0.0214673 -0.0032756 -0.166366 -0.0274551 -0.00943807 -0.185688 -0.0343674 
-0.0201636 -0.204782 -0.0437526 -0.0335388 -0.223745 -0.0545737 -0.0512686 -0.239747 -0.0693499 
-0.0711098 -0.254312 -0.0860436 -0.0920947 -0.263151 -0.107268 -0.113537 -0.2697 -0.130304 
-0.0195769 -0.0858573 -0.00570632 -0.0169225 -0.100461 -0.00994164 -0.0152009 -0.115335 -0.0147328 
-0.0152493 -0.130902 -0.020507 -0.0167399 -0.147034 -0.0270824 -0.0210776 -0.163762 -0.035292 
-0.0273787 -0.180902 -0.0446287 -0.0374291 -0.197621 -0.056631 -0.0496567 -0.214096 -0.070181 
-0.0652336 -0.22817 -0.087584 -0.0824345 -0.241081 -0.106855 -0.100224 -0.249674 -0.130288 
-0.11825 -0.256541 -0.155386 -0.0339033 -0.0895377 -0.00455589 -0.0313189 -0.103188 -0.00994028 
-0.0299047 -0.116924 -0.0159719 -0.0303101 -0.131079 -0.0231441 -0.0321983 -0.145573 -0.0312456 
-0.0366713 -0.160345 -0.0411537 -0.0429268 -0.175309 -0.0523076 -0.052324 -0.18972 -0.0662169 
-0.0635456 -0.203809 -0.081726 -0.0773942 -0.215903 -0.100999 -0.0925164 -0.22703 -0.122098 
-0.107802 -0.234819 -0.147163 -0.123153 -0.241272 -0.173814 -0.047508 -0.0934574 -0.00315522 
-0.0447823 -0.105862 -0.00954302 -0.0434582 -0.118218 -0.0166224 -0.043993 -0.130777 -0.0249256 
-0.0460426 -0.1435 -0.0342259 -0.0504656 -0.156266 -0.045406 -0.0565253 -0.16906 -0.0578824 
-0.0652873 -0.181216 -0.0731201 -0.0756183 -0.193003 -0.0899611 -0.0880844 -0.203074 -0.110488 
-0.101586 -0.212312 -0.132802 -0.114931 -0.21884 -0.159029 -0.128213 -0.224284 -0.186821 
-0.0593269 -0.0979717 -0.00163366 -0.0563927 -0.10882 -0.00880718 -0.0550511 -0.119583 -0.0166789 
-0.055581 -0.130416 -0.0257941 -0.0576357 -0.141307 -0.0359226 -0.0618757 -0.152073 -0.0479182 
-0.0676229 -0.162752 -0.0612014 -0.075716 -0.172715 -0.077157 -0.0851714 -0.182261 -0.0946643 
-0.0963691 -0.190223 -0.115686 -0.108411 -0.197415 -0.138411 -0.120034 -0.202221 -0.164886 
-0.131487 -0.206072 -0.19286 -0.0699141 -0.102896 -2.87483e-05 -0.0667253 -0.111974 -0.00783783 
-0.065292 -0.120996 -0.0163258 -0.0657242 -0.130015 -0.0260331 -0.0676764 -0.13903 -0.0367339 
-0.0716418 -0.147801 -0.0492302 -0.0769956 -0.156404 -0.0629648 -0.0843968 -0.164214 -0.0792172 
-0.0929868 -0.171564 -0.0969316 -0.102995 -0.177357 -0.117924 -0.11369 -0.182395 -0.140506 
-0.12374 -0.18516 -0.166598 -0.133532 -0.187015 -0.194094 -0.0778884 -0.108176 0.00141899 
-0.0746242 -0.115327 -0.00678185 -0.0731674 -0.122528 -0.0156305 -0.0735075 -0.129713 -0.0256377 
-0.0753118 -0.136884 -0.0365891 -0.0789378 -0.143743 -0.0492085 -0.08382 -0.150386 -0.0629784 
-0.090459 -0.156175 -0.0790345 -0.0981181 -0.161469 -0.0964181 -0.106884 -0.165196 -0.116726 
-0.116186 -0.168164 -0.138452 -0.124653 -0.1689 -0.163253 -0.132786 -0.168744 -0.189284 
-0.0843455 -0.113661 0.00277547 -0.08111 -0.118795 -0.00567558 -0.0796693 -0.124129 -0.0147365 
-0.0799206 -0.129469 -0.0248741 -0.0815506 -0.134815 -0.0358891 -0.0847995 -0.139809 -0.0484123 
-0.0891648 -0.144558 -0.0619759 -0.0950008 -0.148404 -0.0775494 -0.101691 -0.151724 -0.09429 
-0.109184 -0.153445 -0.113533 -0.117067 -0.15439 -0.133989 -0.123945 -0.153106 -0.156971 
-0.130422 -0.150929 -0.180964 -0.0878846 -0.118787 0.00375037 -0.0849745 -0.122011 -0.00471636 
-0.0837116 -0.125586 -0.0137603 -0.0839639 -0.129215 -0.0237857 -0.0854508 -0.132887 -0.0346109 
-0.0883253 -0.136202 -0.0467623 -0.092157 -0.139273 -0.0598285 -0.0971731 -0.141433 -0.0745992 
-0.102877 -0.143065 -0.0903596 -0.109104 -0.143126 -0.10816 -0.115585 -0.142425 -0.126949 
-0.120957 -0.13959 -0.147663 -0.125886 -0.135901 -0.169146 -0.0900088 -0.123737 0.00454026 
-0.087568 -0.125105 -0.00382843 -0.0865613 -0.126974 -0.0127443 -0.0868581 -0.128954 -0.02254 
-0.088217 -0.131026 -0.0330524 -0.0907186 -0.132756 -0.0446984 -0.0940085 -0.13425 -0.0571261 
-0.0981966 -0.134851 -0.0709387 -0.102906 -0.134933 -0.0855555 -0.10787 -0.133501 -0.10173 
-0.112957 -0.131336 -0.11866 -0.116863 -0.127178 -0.136886 -0.120298 -0.122224 -0.155631 
-0.0896665 -0.127537 0.0048822 -0.0878858 -0.127398 -0.00320938 -0.0872596 -0.127845 -0.0118241 
-0.0876897 -0.128448 -0.021219 -0.0889803 -0.129178 -0.0312498 -0.0911655 -0.129603 -0.0422298 
-0.0939677 -0.129816 -0.0538645 -0.0974093 -0.129199 -0.0665899 -0.101222 -0.128101 -0.0799487 
-0.105079 -0.125622 -0.0944406 -0.108956 -0.122474 -0.109482 -0.111659 -0.11757 -0.125305 
-0.113892 -0.111964 -0.14144 -0.0883375 -0.130876 0.00504495 -0.0872932 -0.129371 -0.00269789 
-0.0870973 -0.128509 -0.0109421 -0.0876961 -0.127843 -0.019868 -0.0889425 -0.127336 -0.0293495 
-0.0908338 -0.126567 -0.0395994 -0.0931699 -0.125617 -0.0503792 -0.0958977 -0.12392 -0.0619657 
-0.0988532 -0.12179 -0.0740207 -0.101665 -0.118441 -0.0868072 -0.104407 -0.114502 -0.0999482 
-0.106011 -0.109083 -0.113401 -0.107158 -0.103071 -0.126978 0.00967073 -0.0784711 -0.0119703 
0.0131164 -0.0954349 -0.0135161 0.0160999 -0.113395 -0.0154242 0.0173508 -0.133215 -0.0177825 
0.0171899 -0.154551 -0.0205077 0.0130887 -0.178041 -0.0240134 0.00627008 -0.203017 -0.0280574 
-0.00702854 -0.228637 -0.0339284 -0.0240898 -0.25463 -0.0408603 -0.047825 -0.276792 -0.0515568 
-0.074796 -0.297096 -0.0640785 -0.103367 -0.308487 -0.0817447 -0.132579 -0.316312 -0.101469 
-0.00704772 -0.0818698 -0.0110006 -0.00446194 -0.0984849 -0.0138276 -0.00266655 -0.115805 -0.0172386 
-0.00277122 -0.134508 -0.0214616 -0.0044241 -0.154336 -0.0263461 -0.00963878 -0.17562 -0.0324935 
-0.0173099 -0.197909 -0.0395118 -0.0301522 -0.220294 -0.0487613 -0.0459973 -0.242734 -0.0593063 
-0.0666571 -0.262003 -0.073504 -0.0896514 -0.279733 -0.0894726 -0.113278 -0.290899 -0.109844 
-0.137157 -0.299439 -0.131977 -0.0235623 -0.0849455 -0.00973279 -0.0214672 -0.100811 -0.0137303 
-0.0204546 -0.117077 -0.018481 -0.0214367 -0.134267 -0.0243019 -0.0240443 -0.152211 -0.0309947 
-0.0298664 -0.171033 -0.039261 -0.0379054 -0.19046 -0.0486123 -0.050183 -0.20965 -0.0604378 
-0.0649218 -0.228703 -0.0736998 -0.0833016 -0.245223 -0.0906236 -0.103447 -0.260514 -0.109323 
-0.123586 -0.271047 -0.132259 -0.143723 -0.279675 -0.156889 -0.0390368 -0.0883709 -0.00818603 
-0.0371037 -0.103113 -0.0131969 -0.0365299 -0.118019 -0.0190781 -0.0380196 -0.133486 -0.0262016 
-0.0411907 -0.149408 -0.0343374 -0.0472927 -0.165764 -0.0442394 -0.0554161 -0.182419 -0.0553596 
-0.067094 -0.19859 -0.0690953 -0.080836 -0.214482 -0.0843498 -0.0974073 -0.228268 -0.103291 
-0.11535 -0.241033 -0.124019 -0.132838 -0.250227 -0.149001 -0.150143 -0.257992 -0.175683 
-0.0536636 -0.0920813 -0.00641197 -0.0516249 -0.105395 -0.0123082 -0.0512098 -0.118694 -0.0191493 
-0.0529056 -0.132263 -0.0273348 -0.0563213 -0.146053 -0.0366159 -0.0624364 -0.15994 -0.0477601 
-0.0704131 -0.173895 -0.0601893 -0.081463 -0.187191 -0.075293 -0.0942975 -0.200106 -0.0919497 
-0.109444 -0.21117 -0.11233 -0.125713 -0.221337 -0.134516 -0.141228 -0.228618 -0.16112 
-0.156443 -0.234745 -0.189492 -0.0662979 -0.0965094 -0.00456004 -0.0640442 -0.108076 -0.0111553 
-0.0636286 -0.119559 -0.0187308 -0.0653345 -0.131124 -0.0276894 -0.0687689 -0.142756 -0.037775 
-0.0746896 -0.154241 -0.0497342 -0.0823248 -0.165626 -0.0629855 -0.0926388 -0.176191 -0.0788665 
-0.104508 -0.186282 -0.0962745 -0.118278 -0.194591 -0.117319 -0.132968 -0.202037 -0.140127 
-0.146671 -0.206877 -0.16733 -0.159978 -0.210675 -0.196292 -0.0775583 -0.101432 -0.0026544 
-0.075014 -0.111032 -0.00982042 -0.0744882 -0.120555 -0.0179747 -0.076069 -0.130042 -0.027507 