# vtk DataFile Version 2.0
vtk output
ASCII
DATASET RECTILINEAR_GRID
DIMENSIONS 13 13 13
X_COORDINATES 13 float
-10 -9.79167 -9.58333 -9.375 -9.16667 -8.95833 -8.75 -8.54167 -8.33333 
-8.125 -7.91667 -7.70833 -7.5 
Y_COORDINATES 13 float
0 0.208333 0.416667 0.625 0.833333 1.04167 1.25 1.45833 1.66667 
1.875 2.08333 2.29167 2.5 
Z_COORDINATES 13 float
-2.5 -2.29167 -2.08333 -1.875 -1.66667 -1.45833 -1.25 -1.04167 -0.833333 
-0.625 -0.416667 -0.208333 0 
POINT_DATA 2197
VECTORS grad float
0.115525 0.17535 0.11446 0.114815 0.191675 0.121658 0.113881 0.207505 0.128333 
0.107669 0.211714 0.122737 0.100746 0.214559 0.116144 0.0858276 0.202054 0.09834 
0.0703138 0.187967 0.0798681 0.0505328 0.162535 0.0566069 0.0308491 0.13651 0.0336451 
0.0116642 0.107454 0.0122186 -0.00665859 0.0792358 -0.00800715 -0.0216196 0.0542882 -0.0235503 
-0.0352039 0.0311023 -0.0374812 0.131541 0.209326 0.119556 0.127691 0.231752 0.128157 
0.123448 0.253591 0.13627 0.109966 0.26162 0.132915 0.0957694 0.267911 0.12855 
0.0735396 0.254655 0.112837 0.0510994 0.239332 0.0963206 0.0271501 0.209194 0.0740517 
0.00396545 0.178253 0.0519135 -0.0153005 0.143191 0.0304458 -0.0331464 0.109094 0.0100789 
-0.0454543 0.0787619 -0.00599509 -0.0561875 0.0504865 -0.02049 0.160352 0.230745 0.127024 
0.152288 0.260353 0.138851 0.143557 0.289304 0.150209 0.119139 0.302838 0.150537 
0.0939083 0.314116 0.149718 0.05953 0.300008 0.136002 0.0255766 0.283183 0.121201 
-0.00533327 0.246877 0.0986314 -0.0343477 0.209702 0.0760225 -0.0536473 0.168067 0.0532132 
-0.0706963 0.127805 0.0315069 -0.0789679 0.0928971 0.0141019 -0.0854581 0.0604914 -0.00166868 
0.190086 0.250687 0.134915 0.177773 0.287377 0.150193 0.164508 0.323347 0.165018 
0.128892 0.342409 0.169204 0.0923524 0.358695 0.172086 0.0454133 0.343747 0.160294 
-0.000436809 0.325433 0.147115 -0.0384831 0.282996 0.124001 -0.0734589 0.239641 0.100685 
-0.0926976 0.191586 0.0763379 -0.108844 0.14532 0.0531163 -0.112932 0.106032 0.0342848 
-0.115046 0.0696841 0.0171579 0.233972 0.247972 0.14929 0.216866 0.290239 0.171461 
0.198383 0.331799 0.193165 0.147541 0.356726 0.203892 0.0954762 0.378342 0.212846 
0.0296527 0.362723 0.201862 -0.0339732 0.343137 0.188869 -0.0818505 0.295121 0.161477 
-0.124806 0.246433 0.133839 -0.142534 0.194294 0.10494 -0.156165 0.144497 0.0775061 
-0.153813 0.103832 0.0557846 -0.149504 0.0664238 0.0360642 0.27855 0.24143 0.164015 
0.25674 0.288243 0.193416 0.233115 0.334372 0.222337 0.166847 0.364419 0.239964 
0.0990343 0.390698 0.255308 0.0138461 0.374592 0.244968 -0.0679838 0.354013 0.231956 
-0.125747 0.30137 0.199798 -0.176684 0.248306 0.167382 -0.192632 0.193089 0.133644 
-0.203497 0.140701 0.101751 -0.194541 0.0993514 0.0770523 -0.183684 0.061507 0.054671 
0.329216 0.201215 0.181811 0.303478 0.243491 0.221408 0.275385 0.28521 0.26052 
0.191933 0.313834 0.288216 0.106414 0.338899 0.31274 -0.00236533 0.323929 0.301594 
-0.106167 0.304803 0.286767 -0.174304 0.255894 0.245555 -0.23324 0.206895 0.204359 
-0.245021 0.157434 0.163247 -0.250929 0.110736 0.12472 -0.233931 0.0748103 0.0962786 
-0.215422 0.0420127 0.0706418 0.376374 0.156084 0.198277 0.34703 0.191735 0.247507 
0.314821 0.226962 0.29625 0.215275 0.252256 0.333559 0.113165 0.274394 0.366849 
-0.0177958 0.261024 0.354915 -0.142243 0.244031 0.338341 -0.220015 0.201066 0.288511 
-0.286355 0.15828 0.238974 -0.294108 0.116409 0.190948 -0.29527 0.0770619 0.146213 
-0.270728 0.0475601 0.114311 -0.245052 0.0206824 0.0856698 0.402482 0.0814608 0.206765 
0.37146 0.09795 0.262241 0.33725 0.114196 0.317257 0.228151 0.124722 0.361454 
0.116147 0.133655 0.401014 -0.028541 0.12467 0.388402 -0.165672 0.113877 0.370497 
-0.248654 0.0901215 0.314659 -0.318832 0.0664423 0.259418 -0.323384 0.0431542 0.207243 
-0.321067 0.0211334 0.158846 -0.291958 0.00405446 0.125184 -0.262029 -0.0116637 0.0950408 
0.419312 0.00650872 0.211778 0.387004 0.00368176 0.271415 0.351291 0.000790229 0.330613 
0.235562 -0.00361839 0.379504 0.116709 -0.00804137 0.423359 -0.0372764 -0.0126259 0.410551 
-0.183002 -0.0171871 0.392023 -0.269534 -0.0215809 0.332509 -0.342335 -0.0260063 0.273785 
-0.344756 -0.0305931 0.219116 -0.340105 -0.0351818 0.168531 -0.30787 -0.0397782 0.133873 
-0.275015 -0.0442846 0.102885 0.394898 -0.0699035 0.20135 0.363056 -0.0927358 0.255876 
0.328049 -0.115456 0.309966 0.218682 -0.13554 0.353796 0.10652 -0.153994 0.393161 
-0.0370793 -0.15411 0.382304 -0.173222 -0.152297 0.366308 -0.255929 -0.136652 0.313479 
-0.325956 -0.121171 0.261143 -0.330998 -0.106531 0.211339 -0.329101 -0.0932152 0.165115 
-0.300144 -0.0850643 0.132857 -0.270257 -0.0781261 0.103943 0.364228 -0.139129 0.188228 
0.333343 -0.178773 0.236514 0.299591 -0.21814 0.284373 0.198507 -0.250989 0.322204 
0.0950129 -0.280863 0.356234 -0.0355958 -0.277271 0.347481 -0.159713 -0.270169 0.334275 
-0.23731 -0.237918 0.289155 -0.303543 -0.205861 0.24422 -0.311535 -0.174799 0.200238 
-0.312836 -0.146118 0.159252 -0.288044 -0.126721 0.129949 -0.261985 -0.109644 0.103598 
0.311949 -0.183528 0.165803 0.283714 -0.228951 0.203941 0.253115 -0.273972 0.24169 
0.166951 -0.309534 0.27029 0.0789532 -0.341811 0.296056 -0.0296685 -0.337131 0.289937 
-0.133322 -0.328493 0.280418 -0.20137 -0.291495 0.246542 -0.260281 -0.254366 0.212507 
-0.272364 -0.216572 0.177656 -0.278397 -0.181295 0.144933 -0.260839 -0.155839 0.120506 
-0.241566 -0.133133 0.0984072 0.121702 0.183881 0.0760638 0.118127 0.202436 0.0790333 
0.114213 0.220504 0.0816334 0.102324 0.22712 0.0755559 0.089843 0.232287 0.068791 
0.0707083 0.221161 0.0542931 0.051358 0.208276 0.039338 0.0304626 0.182777 0.021106 
0.0101095 0.156556 0.00312472 -0.00746367 0.126639 -0.0135707 -0.0239164 0.0975408 -0.029328 
-0.0359996 0.07164 -0.0414267 -0.0467115 0.0475396 -0.0522607 0.139577 0.217762 0.0817399 
0.132962 0.243086 0.0862407 0.125833 0.26783 0.0903899 0.106619 0.278964 0.0862767 
0.0867768 0.288236 0.0814481 0.0598712 0.276565 0.0685718 0.0331262 0.262589 0.0551267 
0.00753132 0.232096 0.037605 -0.0168168 0.200655 0.0202062 -0.0347749 0.164357 0.0034374 
-0.0510085 0.129028 -0.0124686 -0.0605168 0.0974793 -0.0250097 -0.0684353 0.0680444 -0.0363109 
0.172298 0.241747 0.0881499 0.161476 0.275894 0.0954179 0.149841 0.309382 0.102344 
0.119086 0.327403 0.101221 0.0875474 0.342902 0.0992635 0.0472002 0.330035 0.0879093 
0.00769637 0.314055 0.075767 -0.0257646 0.275772 0.0579762 -0.0567233 0.236515 0.0401912 
-0.074857 0.19227 0.0224366 -0.0903654 0.149539 0.00555702 -0.0956353 0.112717 -0.00790947 
-0.0991142 0.0785549 -0.0200938 0.206208 0.26427 0.0948326 0.191134 0.307177 0.105042 
0.174934 0.349351 0.114917 0.132288 0.374332 0.116932 0.0886875 0.396125 0.117974 
0.0343545 0.382045 0.108087 -0.0184121 0.364043 0.0971743 -0.0599547 0.317934 0.078918 
-0.0976812 0.270851 0.0605575 -0.115849 0.218781 0.0416636 -0.13048 0.168786 0.0236743 
-0.131315 0.126885 0.0092129 -0.130178 0.0881851 -0.00391264 0.258345 0.264377 0.105698 
0.238319 0.315078 0.121517 0.216666 0.36506 0.136993 0.156763 0.398127 0.144385 
0.0954928 0.427225 0.150416 0.0188299 0.411676 0.141143 -0.0549264 0.391361 0.130344 
-0.107854 0.336882 0.10861 -0.154759 0.281824 0.0867687 -0.1708 0.223803 0.0643848 
-0.182218 0.168646 0.0431969 -0.175606 0.124657 0.026674 -0.167141 0.0843167 0.011718 
0.311617 0.260189 0.116823 0.286746 0.317418 0.138549 0.259725 0.373953 0.159923 
0.182204 0.41417 0.173034 0.102868 0.449733 0.184357 0.00310299 0.43294 0.175558 
-0.0923326 0.410651 0.164695 -0.156743 0.348975 0.139044 -0.212843 0.28712 0.113317 
-0.22635 0.224354 0.0871946 -0.234181 0.165156 0.0625963 -0.219868 0.119879 0.043941 
-0.203875 0.0786141 0.0270998 0.374882 0.218203 0.130231 0.346095 0.270809 0.160472 
0.314468 0.322865 0.19037 0.216143 0.361997 0.212209 0.115259 0.396624 0.231484 
-0.0144032 0.380565 0.221919 -0.137587 0.359302 0.209435 -0.214345 0.300749 0.17602 
-0.27978 0.242464 0.142829 -0.287182 0.185551 0.110785 -0.288125 0.132188 0.0809107 
-0.263883 0.0926693 0.0594999 -0.238594 0.0567703 0.040292 0.43397 0.170361 0.142643 
0.401624 0.21557 0.180953 0.365787 0.260378 0.218933 0.247928 0.295759 0.249145 
0.126803 0.327056 0.276048 -0.0310744 0.312399 0.265733 -0.180424 0.293123 0.251681 
-0.268661 0.240745 0.210846 -0.342734 0.18897 0.170538 -0.344222 0.140287 0.132932 
-0.338554 0.0948971 0.0981135 -0.304979 0.0623531 0.0741611 -0.270971 0.0328754 0.0527749 
0.467992 0.0873861 0.149085 0.434232 0.10855 0.192785 0.396554 0.129489 0.23619 
0.266796 0.145123 0.272649 0.133264 0.158727 0.305235 -0.0427352 0.149483 0.294259 
-0.208755 0.137955 0.278971 -0.303256 0.110064 0.232774 -0.381794 0.0824496 0.187426 
-0.37852 0.0562506 0.146425 -0.367888 0.0316696 0.108646 -0.328563 0.0133986 0.0834367 
-0.289295 -0.00332633 0.061002 0.49008 0.00395681 0.152863 0.455237 0.000858235 0.200167 
0.416188 -0.0022912 0.247202 0.278306 -0.00663539 0.287921 0.13632 -0.0109342 0.324403 
-0.0518399 -0.014722 0.313221 -0.22905 -0.0184335 0.29735 -0.327798 -0.0215981 0.24788 
-0.409378 -0.024824 0.199464 -0.40297 -0.0283643 0.156452 -0.389055 -0.0319808 0.116938 
-0.345861 -0.0358951 0.0910668 -0.303038 -0.0397945 0.0680916 0.45913 -0.0814901 0.144804 
0.424669 -0.109821 0.187771 0.386339 -0.138031 0.23046 0.257109 -0.163385 0.266609 
0.124238 -0.186516 0.299043 -0.0495845 -0.184653 0.289673 -0.213636 -0.180248 0.276127 
-0.307659 -0.157623 0.232661 -0.385957 -0.135445 0.189945 -0.383657 -0.115551 0.15108 
-0.373928 -0.097511 0.115271 -0.335223 -0.0866967 0.0913829 -0.296424 -0.0774466 0.0701252 
0.42057 -0.158419 0.134768 0.387036 -0.207745 0.172493 0.350042 -0.256783 0.209936 
0.231784 -0.299047 0.240751 0.110423 -0.337334 0.268442 -0.0458446 -0.330879 0.261008 
-0.193724 -0.319863 0.249998 -0.281499 -0.276165 0.213365 -0.355319 -0.233119 0.177167 
-0.357619 -0.193413 0.143201 -0.352692 -0.156969 0.111782 -0.319579 -0.133244 0.0902918 
-0.285853 -0.112416 0.071115 0.35572 -0.205923 0.117908 0.324996 -0.261602 0.147261 
0.291474 -0.316845 0.176349 0.1922 -0.361865 0.199183 0.0906143 -0.402606 0.219739 
-0.0369764 -0.395214 0.214668 -0.158281 -0.38279 0.20692 -0.234538 -0.334309 0.179986 
-0.299748 -0.286067 0.153127 -0.308347 -0.239058 0.126662 -0.310351 -0.195448 0.101994 
-0.286642 -0.165095 0.0843396 -0.261613 -0.138116 0.0684987 0.121432 0.189851 0.0374839 
0.116187 0.209996 0.0364202 0.110545 0.229663 0.0351045 0.0955391 0.238087 0.0278676 
0.0800334 0.245025 0.0202144 0.0589004 0.235237 0.00787815 0.0377807 0.223588 -0.00465772 
0.0167561 0.198597 -0.0186249 -0.00347664 0.172782 -0.0322797 -0.0196509 0.142749 -0.0443335 
-0.0345744 0.11348 -0.0556107 -0.0446201 0.0871968 -0.0638587 -0.0533207 0.0627002 -0.0711311 
0.140702 0.222432 0.0416048 0.132498 0.249448 0.0417418 0.123718 0.275896 0.0416434 
0.1014 0.289004 0.0360144 0.078525 0.300203 0.0299613 0.0493776 0.289926 0.019137 
0.0206078 0.277232 0.0080441 -0.00545563 0.247217 -0.00497364 -0.0300093 0.216159 -0.0177815 
-0.0468244 0.179764 -0.0295133 -0.0617589 0.144296 -0.0405537 -0.0693589 0.112438 -0.0488973 
-0.0753766 0.0826753 -0.0563153 0.175401 0.246697 0.0440618 0.163054 0.283129 0.0456618 
0.149822 0.318912 0.0470426 0.115803 0.339425 0.0432744 0.081042 0.357313 0.0390475 
0.0379394 0.345655 0.0296604 -0.00409117 0.330712 0.0199112 -0.0384407 0.29223 0.00756626 
-0.0699806 0.252709 -0.00464788 -0.0871196 0.207863 -0.0161914 -0.101451 0.164551 -0.0270888 
-0.104832 0.127225 -0.0354661 -0.106429 0.0925817 -0.0429549 0.211395 0.269539 0.0465848 
0.194855 0.315346 0.0497139 0.177109 0.360427 0.0526397 0.131001 0.388449 0.050786 
0.0839508 0.413116 0.0484322 0.0262926 0.400046 0.0404524 -0.029554 0.382818 0.03201 
-0.0724196 0.335796 0.0202524 -0.111111 0.287765 0.00855025 -0.128411 0.234569 -0.00286734 
-0.141964 0.183535 -0.0136762 -0.140908 0.140931 -0.0221112 -0.137888 0.101591 -0.0296899 
0.26724 0.270565 0.0501208 0.245755 0.325112 0.0557928 0.22253 0.378947 0.0612694 
0.158404 0.416043 0.0621554 0.0928662 0.44889 0.0623949 0.0114457 0.433931 0.0553618 
-0.0667281 0.41386 0.0476616 -0.121636 0.357151 0.0351805 -0.170019 0.299909 0.0227376 
-0.184968 0.239935 0.0104909 -0.195061 0.183022 -0.0010649 -0.186219 0.138049 -0.00992576 
-0.175577 0.0968448 -0.0178862 0.324421 0.267136 0.0537701 0.298107 0.329059 0.0621071 
0.269497 0.390298 0.0702574 0.186913 0.435453 0.074019 0.102409 0.475567 0.0769705 
-0.00368754 0.458959 0.0708088 -0.105004 0.43641 0.0637602 -0.172069 0.371279 0.050354 
-0.230165 0.306093 0.036983 -0.242289 0.240625 0.0237919 -0.248485 0.179028 0.0113908 
-0.231559 0.132525 0.00207048 -0.213059 0.0902064 -0.00629728 0.393366 0.224505 0.0584162 
0.363244 0.281803 0.0704933 0.330069 0.33857 0.0823973 0.225155 0.382845 0.0902315 
0.117473 0.422188 0.0969403 -0.0213399 0.40605 0.0909872 -0.15298 0.384243 0.0837911 
-0.23322 0.321813 0.0676865 -0.301198 0.259835 0.0517381 -0.30633 0.200178 0.0365902 
-0.304777 0.144402 0.0224776 -0.277157 0.103763 0.0124021 -0.248711 0.0669161 0.00340172 
0.457851 0.17564 0.0627006 0.424293 0.225228 0.0783276 0.386966 0.27444 0.0937963 
0.261065 0.314802 0.105542 0.131585 0.350653 0.115858 -0.0381532 0.335753 0.110098 
-0.198432 0.315786 0.102756 -0.290923 0.259507 0.0840734 -0.368044 0.204052 0.0656696 
-0.366394 0.152822 0.0486965 -0.357391 0.105216 0.0329927 -0.319713 0.0717463 0.0222394 
-0.281932 0.0415015 0.0126747 0.495575 0.0893693 0.0648146 0.460815 0.112735 0.0828507 
0.421808 0.135892 0.10075 0.282983 0.15415 0.115438 0.139987 0.170179 0.128465 
-0.0499321 0.16113 0.122807 -0.228741 0.149585 0.115326 -0.327933 0.12016 0.0947863 
-0.40976 0.0911131 0.0746596 -0.402597 0.0640104 0.0566505 -0.387933 0.0386704 0.0400783 
-0.344013 0.0202049 0.0291101 -0.300565 0.00334096 0.0193914 0.52016 0.00259464 0.0658877 
0.484477 -0.00050924 0.085571 0.444227 -0.00365413 0.105135 0.296641 -0.00776241 0.121901 
0.144498 -0.0117916 0.136859 -0.0589123 -0.0149315 0.131474 -0.250115 -0.0179675 0.124112 
-0.35384 -0.0202582 0.102581 -0.438872 -0.022628 0.081547 -0.4281 -0.0254032 0.0630645 
-0.409713 -0.0282992 0.0461193 -0.361627 -0.0316665 0.0351694 -0.314384 -0.0350682 0.0254956 
0.486355 -0.0864216 0.0623342 0.450983 -0.117091 0.0802791 0.411428 -0.147637 0.0981039 
0.273585 -0.175279 0.113106 0.131715 -0.200417 0.126528 -0.055454 -0.197386 0.122182 
-0.23178 -0.191531 0.116082 -0.330403 -0.165434 0.0974044 -0.411959 -0.139935 0.0790894 
-0.406043 -0.117493 0.062634 -0.392554 -0.0971526 0.0475175 -0.349526 -0.0850045 0.0376223 
-0.306801 -0.0745824 0.0288774 0.44436 -0.166365 0.0580256 0.409864 -0.219883 0.0738468 
0.371649 -0.273115 0.0895488 0.246034 -0.319615 0.10245 0.117004 -0.361667 0.114031 
-0.0504456 -0.353669 0.110755 -0.208643 -0.340632 0.105983 -0.300538 -0.291473 0.0904837 
-0.377349 -0.24321 0.0752071 -0.376851 -0.199537 0.0610721 -0.368949 -0.159529 0.0480499 
-0.332172 -0.133817 0.039367 -0.295092 -0.111253 0.031689 0.374071 -0.214965 0.0511088 
0.342406 -0.275036 0.0634751 0.307756 -0.334664 0.0757301 0.202953 -0.383874 0.0853687 
0.0956272 -0.428348 0.0940491 -0.0400821 -0.419543 0.0919497 -0.168914 -0.405226 0.0887361 
-0.248465 -0.3514 0.0775372 -0.316148 -0.298013 0.0664031 -0.323008 -0.246873 0.0556019 
-0.323078 -0.19953 0.0455915 -0.296668 -0.166996 0.0386656 -0.269129 -0.138102 0.0325307 
0.119296 0.195079 -0.00114908 0.112728 0.216629 -0.00618951 0.105719 0.237709 -0.011375 
0.0883381 0.24777 -0.0199676 0.0705404 0.256318 -0.0287165 0.0480511 0.247857 -0.0392222 
0.0257603 0.237454 -0.0496566 0.0048918 0.213137 -0.0595802 -0.014992 0.187902 -0.069098 
-0.0298289 0.157968 -0.076536 -0.0433218 0.128735 -0.0833295 -0.0515735 0.102234 -0.0876095 
-0.0585118 0.0774913 -0.0911857 0.139827 0.226011 0.000798491 0.130374 0.254371 -0.00350463 
0.120301 0.282175 -0.00793272 0.0956403 0.29693 -0.0152969 0.0704878 0.30975 -0.0227947 
0.0398029 0.300813 -0.0317943 0.00966847 0.289382 -0.0407431 -0.0165228 0.260085 -0.0493273 
-0.0410046 0.229667 -0.0575871 -0.0567246 0.193505 -0.0641841 -0.0704507 0.158212 -0.0702417 
-0.0764004 0.126308 -0.0741955 -0.0807819 0.096459 -0.0775306 0.175945 0.249894 -0.00153545 
0.162429 0.28796 -0.00592462 0.147979 0.325388 -0.0104106 0.111585 0.347817 -0.0171707 
0.0744948 0.367562 -0.0239941 0.0295671 0.357104 -0.0315284 -0.014115 0.343254 -0.0389613 
-0.0488719 0.305089 -0.0456673 -0.0805982 0.26583 -0.0520945 -0.0967924 0.220964 -0.0570921 
-0.110052 0.177617 -0.0616729 -0.111867 0.140197 -0.0646279 -0.111909 0.10544 -0.0671001 
0.213416 0.272401 -0.00402644 0.195787 0.320149 -0.0085601 0.176895 0.367182 -0.0131623 
0.128359 0.397411 -0.0193753 0.0789037 0.424191 -0.0255767 0.0190983 0.412171 -0.0316477 
-0.0387177 0.395851 -0.0375611 -0.0822773 0.348715 -0.042345 -0.121417 0.300541 -0.0468957 
-0.137906 0.247056 -0.0502515 -0.150509 0.195761 -0.053316 -0.147955 0.153008 -0.055245 
-0.14345 0.113522 -0.0568296 0.271654 0.273795 -0.00892557 0.249133 0.330859 -0.0144997 
0.224799 0.387225 -0.0201132 0.15785 0.427161 -0.0266514 0.0894745 0.462676 -0.0330347 
0.0050569 0.448457 -0.0376745 -0.0758806 0.428912 -0.0420139 -0.13188 0.371199 -0.0442004 
-0.181027 0.312984 -0.0462032 -0.195055 0.252194 -0.0472641 -0.204081 0.19457 -0.0482077 
-0.193595 0.149289 -0.0486934 -0.181351 0.10782 -0.0490124 0.331359 0.270664 -0.0138739 
0.304072 0.335625 -0.0205794 0.274394 0.399917 -0.0272964 0.188538 0.448496 -0.034284 
0.100707 0.49179 -0.0409629 -0.00933392 0.475621 -0.0441692 -0.114296 0.453231 -0.0469219 
-0.18286 0.386259 -0.0464231 -0.242034 0.319322 -0.0457969 -0.253081 0.252557 -0.0445181 
-0.258047 0.189837 -0.0433028 -0.239301 0.14289 -0.0423356 -0.219057 0.100202 -0.0413808 
0.403981 0.227713 -0.0192554 0.373022 0.288072 -0.027892 0.338872 0.347921 -0.0365243 
0.229767 0.395785 -0.045053 0.117767 0.438441 -0.0530286 -0.0267999 0.422517 -0.0547825 
-0.163734 0.400627 -0.0558369 -0.245969 0.335989 -0.0518778 -0.315345 0.271939 -0.0479096 
-0.318817 0.2109 -0.0438952 -0.315482 0.153942 -0.0401886 -0.285603 0.112898 -0.0376826 
-0.255049 0.0757269 -0.0353818 0.471973 0.178313 -0.0242786 0.437722 0.230782 -0.0347401 
0.399522 0.2829 -0.0451833 0.268552 0.326764 -0.0551948 0.133804 0.365836 -0.064418 
-0.0434373 0.350995 -0.0647729 -0.210601 0.330798 -0.064193 -0.305548 0.272214 -0.0569144 
-0.384359 0.214616 -0.0497441 -0.380477 0.162073 -0.0431293 -0.369151 0.11336 -0.0370551 
-0.328796 0.0795764 -0.0330898 -0.288563 0.0490952 -0.0295112 0.512179 0.0902113 -0.0271524 
0.476923 0.115062 -0.0388008 0.437206 0.139722 -0.0504288 0.292669 0.159884 -0.0615738 
0.143701 0.177689 -0.0717498 -0.0551034 0.168966 -0.0710251 -0.242042 0.157612 -0.0691949 
-0.343947 0.127405 -0.0594423 -0.427596 0.0976509 -0.0499098 -0.417684 0.0702254 -0.0415055 
-0.400226 0.0446478 -0.0338064 -0.353339 0.0262765 -0.0288577 -0.307206 0.00952478 -0.0244109 
0.538463 0.00157688 -0.0292098 0.502431 -0.00145523 -0.0415723 0.461597 -0.00451961 -0.0539101 
0.307911 -0.00834232 -0.0656661 0.149367 -0.0120599 -0.0763301 -0.0638161 -0.014595 -0.0747088 
-0.263948 -0.0170057 -0.0718674 -0.370554 -0.0185255 -0.0602808 -0.457496 -0.0201386 -0.0489901 
-0.443652 -0.0222302 -0.0392166 -0.42218 -0.0244785 -0.0302647 -0.37096 -0.0273378 -0.0245172 
-0.320901 -0.0302737 -0.0193589 0.502868 -0.0894267 -0.0276391 0.46708 -0.121519 -0.0386139 
0.426907 -0.153489 -0.0495507 0.283708 -0.182556 -0.0595954 0.136228 -0.208927 -0.0686811 
-0.0594026 -0.204963 -0.066977 -0.243479 -0.197988 -0.0641866 -0.344757 -0.169436 -0.0536102 
-0.42812 -0.141593 -0.0432462 -0.419666 -0.117386 -0.0339714 -0.403595 -0.0954469 -0.0254208 
-0.357816 -0.0823498 -0.0196948 -0.312608 -0.0710858 -0.0145211 0.458727 -0.171027 -0.0254569 
0.423758 -0.227148 -0.0348231 0.384906 -0.282988 -0.0441404 0.254776 -0.332226 -0.0523062 
0.121029 -0.376696 -0.0596661 -0.0534116 -0.367538 -0.0579601 -0.218034 -0.353027 -0.0553248 
-0.312297 -0.300141 -0.0460288 -0.390769 -0.248333 -0.0368567 -0.38831 -0.202045 -0.0283202 
-0.378375 -0.159689 -0.0203891 -0.339282 -0.132667 -0.0148192 -0.300098 -0.108952 -0.0097467 
0.385063 -0.220141 -0.0211617 0.352905 -0.282908 -0.0281571 0.317647 -0.345231 -0.0351001 
0.20951 -0.397106 -0.0408074 0.0987155 -0.443942 -0.0459321 -0.0419713 -0.434102 -0.0445037 
-0.175401 -0.418439 -0.042383 -0.256823 -0.361047 -0.0353008 -0.32587 -0.304241 -0.0282368 
-0.331498 -0.250441 -0.0212663 -0.33024 -0.200697 -0.0147086 -0.302128 -0.166768 -0.00976036 
-0.273019 -0.136643 -0.00519128 0.111225 0.194938 -0.0339454 0.104215 0.216706 -0.0420895 
0.0967684 0.238032 -0.0503017 0.0790577 0.248969 -0.0601112 0.0610153 0.258458 -0.0698799 
0.0392427 0.25165 -0.0791902 0.0177514 0.242928 -0.0882014 -0.00172443 0.220489 -0.0950687 
-0.0201982 0.19705 -0.101419 -0.0335354 0.168496 -0.105123 -0.0455809 0.140498 -0.108248 
-0.052589 0.114673 -0.109119 -0.0583718 0.0904852 -0.109479 0.132024 0.222399 -0.0347634 
0.122293 0.250136 -0.0426754 0.111952 0.277351 -0.0506282 0.0872964 0.29231 -0.0595383 
0.0622247 0.305448 -0.0683516 0.0324763 0.298093 -0.0760771 0.00332705 0.288347 -0.083479 
-0.0215289 0.261464 -0.0885621 -0.0446921 0.233415 -0.0931935 -0.0591789 0.199389 -0.0955103 
-0.0717282 0.166066 -0.0973756 -0.0767212 0.135489 -0.0974796 -0.0802129 0.106793 -0.0971947 
0.166639 0.243151 -0.0419862 0.153104 0.279422 -0.0513566 0.138668 0.315094 -0.0607255 
0.103066 0.336698 -0.0700575 0.0668529 0.355822 -0.0791307 0.023763 0.347041 -0.0852926 
-0.0181015 0.335081 -0.0909586 -0.0511846 0.300339 -0.0930708 -0.0813556 0.264452 -0.0947472 
-0.0966011 0.222694 -0.0941894 -0.10901 0.182217 -0.0933686 -0.110356 0.146738 -0.0915216 
-0.109975 0.11368 -0.0895106 0.202438 0.262601 -0.0495307 0.185051 0.307365 -0.0605106 
0.166459 0.351459 -0.0714462 0.119551 0.379796 -0.0813385 0.071821 0.404984 -0.0907973 
0.0148368 0.394746 -0.0953789 -0.0402533 0.380538 -0.0992774 -0.0817716 0.337869 -0.0982808 
-0.119099 0.294101 -0.0968668 -0.134947 0.244702 -0.093313 -0.147049 0.197179 -0.0896958 
-0.144541 0.156968 -0.085831 -0.140102 0.119716 -0.0820353 0.256388 0.262091 -0.0620068 
0.234414 0.314723 -0.0769133 0.210735 0.366693 -0.0917247 0.147005 0.40311 -0.104299 
0.0819998 0.435562 -0.116071 0.00264749 0.423409 -0.118817 -0.0734954 0.40642 -0.120465 
-0.12664 0.354777 -0.114243 -0.173401 0.30248 -0.107664 -0.18745 0.246834 -0.0992526 
-0.196688 0.193908 -0.0911478 -0.187163 0.151592 -0.0842391 -0.17583 0.112713 -0.0777607 
0.311511 0.257385 -0.0746188 0.285051 0.316604 -0.0936858 0.256366 0.375183 -0.112609 
0.175416 0.418729 -0.128162 0.0927025 0.457591 -0.142514 -0.0098371 0.443746 -0.143373 
-0.107763 0.424319 -0.142691 -0.172629 0.364881 -0.130966 -0.228833 0.305238 -0.118963 
-0.240643 0.244549 -0.105542 -0.24661 0.18734 -0.0928201 -0.229788 0.143708 -0.0828295 
-0.211338 0.103907 -0.0736389 0.376953 0.215744 -0.0884262 0.346902 0.270284 -0.113712 
0.313926 0.324326 -0.138829 0.212247 0.366638 -0.159959 0.108016 0.404389 -0.179243 
-0.02492 0.390822 -0.177764 -0.151058 0.371956 -0.174057 -0.228482 0.31511 -0.154377 
-0.294197 0.258541 -0.134682 -0.299897 0.203398 -0.114906 -0.299011 0.151754 -0.0964301 
-0.272442 0.113756 -0.0830247 -0.244912 0.079231 -0.0708612 0.438136 0.168211 -0.101247 
0.404842 0.215216 -0.132408 0.367962 0.261866 -0.163377 0.24682 0.300172 -0.189849 
0.122373 0.334323 -0.213856 -0.039266 0.321739 -0.210126 -0.192021 0.304441 -0.203512 
-0.281119 0.253357 -0.176232 -0.355632 0.202912 -0.149197 -0.355403 0.15575 -0.123419 
-0.347929 0.111859 -0.0995125 -0.3122 0.0807267 -0.0829038 -0.276154 0.0525418 -0.0679518 
0.473755 0.085324 -0.10815 0.439318 0.10765 -0.143114 0.400857 0.129786 -0.177892 
0.267849 0.147451 -0.208296 0.13099 0.163073 -0.235772 -0.0491902 0.155699 -0.230312 
-0.218996 0.146007 -0.221508 -0.314451 0.119706 -0.188746 -0.393494 0.0936868 -0.156489 
-0.388423 0.0691152 -0.126824 -0.375945 0.0461121 -0.0994285 -0.334579 0.0292259 -0.0808867 
-0.293412 0.013774 -0.0642527 0.49709 0.00195384 -0.112722 0.461802 -0.000625461 -0.15012 
0.422198 -0.00323049 -0.187332 0.281186 -0.00643965 -0.220195 0.135966 -0.00955856 -0.249822 
-0.0565905 -0.0116622 -0.243054 -0.237784 -0.0136618 -0.232638 -0.337544 -0.0149156 -0.196082 
-0.419676 -0.016257 -0.160204 -0.411466 -0.0180479 -0.127804 -0.395729 -0.0199937 -0.097944 
-0.350638 -0.0225439 -0.0779884 -0.306077 -0.0251851 -0.0601161 0.465831 -0.0835656 -0.106933 
0.43099 -0.112056 -0.140674 0.392189 -0.14041 -0.174213 0.260337 -0.165535 -0.202992 
0.124757 -0.188328 -0.228915 -0.0527731 -0.184892 -0.222715 -0.220189 -0.178819 -0.213253 
-0.315126 -0.15385 -0.180404 -0.393947 -0.129393 -0.148019 -0.390163 -0.107559 -0.118009 
-0.378924 -0.0876943 -0.0902344 -0.33861 -0.0755096 -0.0711736 -0.298335 -0.0649952 -0.0540346 
0.426793 -0.160487 -0.099381 0.392939 -0.210517 -0.128772 0.355554 -0.260251 -0.157949 
0.235203 -0.303008 -0.182092 0.111678 -0.341631 -0.203817 -0.0475542 -0.333743 -0.198353 
-0.198133 -0.32115 -0.190078 -0.286698 -0.274837 -0.161663 -0.36099 -0.229268 -0.133486 
-0.362131 -0.187513 -0.106528 -0.356012 -0.149161 -0.0814402 -0.32158 -0.124082 -0.0636505 
-0.286641 -0.102003 -0.0475725 0.360881 -0.207707 -0.0857369 0.32988 -0.264173 -0.108384 
0.29603 -0.320196 -0.130824 0.195264 -0.365789 -0.148423 0.0921419 -0.40696 -0.164245 
-0.0374935 -0.39838 -0.160089 -0.160664 -0.38463 -0.153812 -0.237502 -0.333826 -0.132341 
-0.303067 -0.283336 -0.110844 -0.310854 -0.23445 -0.0892178 -0.312005 -0.18909 -0.0688993 
-0.287274 -0.15748 -0.0536806 -0.261292 -0.129328 -0.0397958 0.101819 0.193589 -0.0654285 
0.0945656 0.215308 -0.0764799 0.0868901 0.236617 -0.0875291 0.0693094 0.24826 -0.0985241 
0.051483 0.258538 -0.109296 0.0308936 0.253458 -0.117553 0.0106452 0.246515 -0.125294 
-0.00715983 0.226223 -0.129327 -0.0239847 0.204855 -0.132729 -0.0357858 0.177967 -0.132896 
-0.0463802 0.151475 -0.132536 -0.0522686 0.126528 -0.130124 -0.0570322 0.103075 -0.127377 
0.122661 0.217169 -0.0691452 0.11287 0.243841 -0.0804791 0.102494 0.270029 -0.0917755 
0.078371 0.284868 -0.102189 0.0539109 0.298029 -0.112289 0.0256555 0.292312 -0.118864 
-0.00197982 0.284345 -0.124853 -0.0251713 0.260258 -0.126645 -0.0467353 0.234967 -0.127855 
-0.0599579 0.203504 -0.126084 -0.0713375 0.172556 -0.123935 -0.0755298 0.143615 -0.120311 
-0.0782997 0.11635 -0.11651 0.155117 0.23417 -0.081279 0.141821 0.267875 -0.0954039 
0.127677 0.301027 -0.109434 0.0935791 0.321189 -0.121244 0.0589648 0.339134 -0.132489 
0.0185367 0.332136 -0.137386 -0.0207296 0.322246 -0.141409 -0.0516706 0.291627 -0.139163 
-0.0798943 0.259811 -0.136321 -0.0941905 0.221865 -0.130431 -0.105799 0.184912 -0.124414 
-0.106923 0.151831 -0.117905 -0.106373 0.12088 -0.111531 0.188534 0.249951 -0.0938859 
0.17169 0.290624 -0.111038 0.153722 0.330679 -0.128039 0.109355 0.356201 -0.141457 
0.0642802 0.378964 -0.154041 0.0112353 0.370673 -0.157227 -0.0400727 0.358846 -0.159226 
-0.0789342 0.321676 -0.152718 -0.11394 0.283338 -0.145606 -0.129185 0.23901 -0.135402 
-0.140887 0.196164 -0.125342 -0.138773 0.159102 -0.115844 -0.13475 0.12462 -0.106806 
0.236694 0.247027 -0.113746 0.215622 0.293662 -0.137554 0.192995 0.339679 -0.161138 
0.133845 0.371146 -0.179436 0.0736063 0.399245 -0.196319 0.00113345 0.389457 -0.197284 
-0.0685141 0.375482 -0.19639 -0.117916 0.331499 -0.182185 -0.161584 0.28667 -0.167442 
-0.175865 0.237509 -0.149944 -0.185603 0.1905 -0.133142 -0.177624 0.151883 -0.11906 
-0.167768 0.116239 -0.105974 0.285636 0.240323 -0.133811 0.260408 0.291825 -0.164637 
0.23318 0.34272 -0.195168 0.158975 0.37933 -0.218793 0.0832792 0.412046 -0.240379 
-0.00918306 0.400951 -0.239027 -0.0976698 0.385117 -0.235104 -0.157667 0.335321 -0.212755 
-0.20999 0.285009 -0.189967 -0.222978 0.232054 -0.164926 -0.230447 0.18185 -0.141173 
-0.216391 0.142378 -0.122443 -0.200533 0.106197 -0.105261 0.341456 0.200359 -0.155684 
0.312705 0.247084 -0.196706 0.281386 0.293319 -0.237395 0.189746 0.328022 -0.270279 
0.0960038 0.359017 -0.300112 -0.0213887 0.348291 -0.295618 -0.13311 0.333148 -0.287459 
-0.204193 0.286343 -0.253038 -0.265107 0.239407 -0.218558 -0.27391 0.191796 -0.183785 
-0.276426 0.146927 -0.151226 -0.25442 0.112753 -0.1273 -0.231067 0.0815412 -0.105597 
0.393507 0.155234 -0.175963 0.361543 0.194898 -0.22661 0.326476 0.234197 -0.276893 
0.218515 0.264905 -0.318634 0.10787 0.292303 -0.356354 -0.0329672 0.282471 -0.348837 
-0.166523 0.268776 -0.336615 -0.247902 0.227398 -0.290675 -0.31677 0.186199 -0.24506 
-0.321519 0.145922 -0.201114 -0.319286 0.108189 -0.160262 -0.289827 0.0803741 -0.131477 
-0.259462 0.0550553 -0.10555 0.422949 0.0791477 -0.18668 0.389626 0.0980468 -0.243527 
0.352864 0.116753 -0.30002 0.235266 0.130931 -0.348203 0.114584 0.143478 -0.39165 
-0.040783 0.137683 -0.381825 -0.187771 0.129984 -0.366575 -0.274716 0.108645 -0.312441 
-0.347707 0.0873598 -0.259021 -0.349184 0.0663568 -0.209254 -0.343434 0.0465609 -0.163192 
-0.3095 0.0314728 -0.13158 -0.27502 0.017588 -0.103203 0.44229 0.00264463 -0.193627 
0.407991 0.000603849 -0.254483 0.370025 -0.00145657 -0.314989 0.245912 -0.00397839 -0.36729 
0.118455 -0.00643404 -0.414383 -0.0466357 -0.00814533 -0.402886 -0.20262 -0.00978194 -0.385487 
-0.293345 -0.0108833 -0.325794 -0.369157 -0.0120623 -0.267069 -0.368538 -0.0136385 -0.21331 
-0.36052 -0.0153595 -0.163665 -0.323645 -0.0176454 -0.130061 -0.286451 -0.0200304 -0.0999515 
0.416745 -0.0757096 -0.183824 0.383158 -0.0994677 -0.238947 0.346176 -0.123071 -0.293702 
0.229431 -0.143046 -0.339794 0.109689 -0.161179 -0.381279 -0.0437636 -0.158599 -0.370934 
-0.189026 -0.153883 -0.355299 -0.2756 -0.133856 -0.301749 -0.348448 -0.114074 -0.24884 
-0.350956 -0.0955443 -0.19922 -0.346218 -0.0785811 -0.15322 -0.313218 -0.0677275 -0.121339 
-0.279545 -0.0583209 -0.092674 0.384441 -0.146527 -0.171155 0.352058 -0.18851 -0.219409 
0.316616 -0.230175 -0.267285 0.209259 -0.264379 -0.306259 0.0993164 -0.295295 -0.341321 
-0.0397115 -0.289223 -0.332373 -0.17164 -0.279313 -0.318857 -0.252693 -0.241889 -0.272601 
-0.321491 -0.204761 -0.226644 -0.327483 -0.169146 -0.182219 -0.326497 -0.136227 -0.140829 