# vtk DataFile Version 2.0
vtk output
ASCII
DATASET RECTILINEAR_GRID
DIMENSIONS 13 13 13
X_COORDINATES 13 float
-5 -4.79167 -4.58333 -4.375 -4.16667 -3.95833 -3.75 -3.54167 -3.33333 
-3.125 -2.91667 -2.70833 -2.5 
Y_COORDINATES 13 float
-2.5 -2.29167 -2.08333 -1.875 -1.66667 -1.45833 -1.25 -1.04167 -0.833333 
-0.625 -0.416667 -0.208333 0 
Z_COORDINATES 13 float
-2.5 -2.29167 -2.08333 -1.875 -1.66667 -1.45833 -1.25 -1.04167 -0.833333 
-0.625 -0.416667 -0.208333 0 
POINT_DATA 2197
VECTORS grad float
-0.0257361 0.0102786 0.00407812 -0.0684962 0.00609963 0.0209835 -0.104921 0.00628842 0.0227513 
-0.135742 0.010341 0.0111281 -0.153173 0.0149757 -0.00328297 -0.160561 0.0200472 -0.0197849 
-0.162079 0.0240658 -0.033679 -0.159878 0.0274175 -0.0459212 -0.159193 0.0303064 -0.0562481 
-0.159313 0.0329494 -0.0655575 -0.164003 0.0363874 -0.0753015 -0.17071 0.0401762 -0.0852372 
-0.181883 0.046301 -0.0984393 -0.0319946 -0.0382632 -0.01017 -0.0685013 -0.0403887 0.00453682 
-0.10025 -0.0358407 0.00717844 -0.12779 -0.0253894 -0.000852929 -0.144192 -0.0139836 -0.0118758 
-0.152242 -0.00186199 -0.0251422 -0.154784 0.00849591 -0.0367385 -0.153837 0.0177368 -0.047277 
-0.153706 0.0258072 -0.0563764 -0.154007 0.0332558 -0.0647114 -0.157924 0.0412403 -0.0734629 
-0.163438 0.0494613 -0.0823982 -0.172313 0.0602948 -0.0940502 -0.0364147 -0.0610901 -0.0277182 
-0.0656165 -0.0618809 -0.0147817 -0.0916675 -0.0556085 -0.0110495 -0.114932 -0.0430879 -0.0154595 
-0.129593 -0.0291067 -0.0228109 -0.137803 -0.0140301 -0.0323685 -0.141239 -0.000535547 -0.0411573 
-0.14165 0.0119571 -0.0494592 -0.142273 0.0231976 -0.0568918 -0.143007 0.0337729 -0.0638626 
-0.146325 0.0447639 -0.0712943 -0.150782 0.0559382 -0.0789294 -0.157484 0.069618 -0.0887622 
-0.0403026 -0.0764733 -0.0462217 -0.0618951 -0.0761374 -0.0349314 -0.0819531 -0.0689032 -0.0300459 
-0.100654 -0.0555666 -0.030826 -0.113368 -0.0402245 -0.0344241 -0.121593 -0.0233785 -0.0401358 
-0.125884 -0.00767431 -0.0459696 -0.127684 0.00730668 -0.0518807 -0.129118 0.021135 -0.0575192 
-0.13036 0.0343509 -0.0630131 -0.133127 0.0479026 -0.0690302 -0.136568 0.0616023 -0.0752783 
-0.141132 0.0775891 -0.083214 -0.0418564 -0.0759778 -0.057521 -0.0577375 -0.0749227 -0.0477088 
-0.0729701 -0.0678919 -0.0425032 -0.0876293 -0.0555749 -0.0413726 -0.0981418 -0.0410112 -0.0426932 
-0.105544 -0.0247624 -0.0458521 -0.109864 -0.00901613 -0.0495455 -0.112231 0.00641173 -0.0535775 
-0.114 0.0210816 -0.0576987 -0.115452 0.0353487 -0.0618674 -0.117712 0.0499872 -0.0665838 
-0.120329 0.0647894 -0.0715418 -0.123335 0.0815289 -0.0778025 -0.0428851 -0.0719097 -0.0671993 
-0.0534816 -0.0702269 -0.0588274 -0.0641518 -0.0636617 -0.0534892 -0.0748872 -0.0527774 -0.0508347 
-0.0831401 -0.0394733 -0.0502098 -0.0895312 -0.0243542 -0.0511069 -0.0936935 -0.00905364 -0.0528433 
-0.096444 0.00636176 -0.0551113 -0.0984402 0.0214802 -0.0577774 -0.100036 0.036441 -0.0606551 
-0.101798 0.0518345 -0.0640962 -0.103634 0.0674191 -0.067786 -0.105212 0.0845615 -0.0724217 
-0.0420715 -0.0643816 -0.0700975 -0.0492326 -0.0622125 -0.0629316 -0.0567166 -0.0560941 -0.0579525 
-0.0644861 -0.046482 -0.0549078 -0.0706973 -0.0345536 -0.0535119 -0.0757396 -0.020888 -0.0533526 
-0.0791838 -0.00662026 -0.0540529 -0.0816158 0.00802875 -0.0552977 -0.0833537 0.0227631 -0.0570319 
-0.0847228 0.0375429 -0.0590262 -0.0859883 0.0528288 -0.0615438 -0.087208 0.0683381 -0.0642922 
-0.0879248 0.0850767 -0.0677439 -0.0409508 -0.0562768 -0.0718657 -0.0449848 -0.0536451 -0.0658668 
-0.0495119 -0.0479703 -0.0613287 -0.0544752 -0.0396035 -0.0580826 -0.0586809 -0.0290702 -0.0561116 
-0.0623183 -0.0169121 -0.0550967 -0.064951 -0.00377506 -0.0549145 -0.0669473 0.0099819 -0.0552595 
-0.0683461 0.0241934 -0.0561491 -0.0694273 0.0386464 -0.0573278 -0.070196 0.0536809 -0.0589805 
-0.0708268 0.068972 -0.0608421 -0.0707772 0.0851724 -0.0631832 -0.038716 -0.0499575 -0.0694015 
-0.0406944 -0.0470087 -0.0643936 -0.0431738 -0.0415734 -0.0604814 -0.0460965 -0.0339386 -0.0575383 
-0.0486455 -0.02434 -0.0556098 -0.0509141 -0.0132685 -0.0544423 -0.0525506 -0.00107826 -0.054 
-0.0537866 0.0118206 -0.0540171 -0.0545914 0.0253786 -0.0545338 -0.0551672 0.039287 -0.055316 
-0.0554569 0.0538253 -0.0564974 -0.0556203 0.0686417 -0.0578547 -0.0551892 0.0841599 -0.0595438 
-0.0363546 -0.0438411 -0.0664564 -0.0363991 -0.0405917 -0.0624195 -0.0369342 -0.0353728 -0.0591542 
-0.0379033 -0.0284116 -0.0565713 -0.0388352 -0.0196954 -0.0547556 -0.0397392 -0.00966276 -0.0535153 
-0.0403584 0.00160166 -0.0528837 -0.0407972 0.0136462 -0.0526377 -0.0409792 0.026536 -0.0528353 
-0.0410247 0.039875 -0.0532686 -0.0408374 0.0538894 -0.0540234 -0.0405474 0.0682018 -0.0549199 
-0.0397786 0.0830216 -0.0560091 -0.0334797 -0.0405442 -0.061133 -0.0320792 -0.0371538 -0.0579869 
-0.031142 -0.0320529 -0.0554408 -0.0306145 -0.025439 -0.0534256 -0.0302005 -0.0172162 -0.0520168 
-0.0298715 -0.00778692 -0.0510627 -0.0294626 0.00289739 -0.0506073 -0.029003 0.0143765 -0.0504677 
-0.0284607 0.026797 -0.050698 -0.0278745 0.0397177 -0.051125 -0.0272208 0.0533609 -0.0518031 
-0.0265372 0.0673229 -0.052592 -0.025629 0.081717 -0.0534851 -0.0305713 -0.0374312 -0.0556543 
-0.0277577 -0.0339102 -0.0533938 -0.0253789 -0.028921 -0.0515719 -0.0233847 -0.0226329 -0.0501379 
-0.0216424 -0.0148783 -0.049155 -0.0200891 -0.0060239 -0.0485106 -0.0186513 0.00410284 -0.0482552 
-0.0172866 0.0150354 -0.0482461 -0.0160135 0.0269996 -0.0485322 -0.0147891 0.0395118 -0.0489751 
-0.0136695 0.0527938 -0.0495993 -0.0125963 0.0664154 -0.0503037 -0.0115616 0.0804015 -0.051027 
-0.0275661 -0.0369098 -0.0489717 -0.0235149 -0.0334026 -0.0475568 -0.0198906 -0.0285211 -0.0464815 
-0.0166437 -0.0224237 -0.0457068 -0.01371 -0.0149184 -0.0452847 -0.0110111 -0.00635726 -0.045127 
-0.00853978 0.00350183 -0.0452825 -0.00621261 0.0141829 -0.0456364 -0.00412597 0.0259844 -0.046235 
-0.00216711 0.038381 -0.0469636 -0.000525286 0.0516459 -0.0478371 0.000976673 0.0652938 -0.0487744 
0.00210569 0.0793641 -0.049692 -0.000402424 0.00101562 -0.0336383 -0.0602269 -0.00543418 -0.00991556 
-0.109571 -0.00505327 -0.00335587 -0.149643 0.00137017 -0.0119788 -0.170801 0.00841293 -0.0231291 
-0.177774 0.0159201 -0.036175 -0.177576 0.0217113 -0.0464086 -0.172836 0.0264156 -0.0548611 
-0.170673 0.0303029 -0.0616461 -0.169879 0.0337562 -0.0675453 -0.175218 0.0380501 -0.074147 
-0.183263 0.0427148 -0.0810586 -0.197543 0.0502335 -0.0913604 -0.0107162 -0.0573278 -0.0454437 
-0.0605852 -0.0611919 -0.0252491 -0.102728 -0.055245 -0.0183324 -0.138037 -0.0406191 -0.0231615 
-0.157904 -0.0251605 -0.0308592 -0.166189 -0.0090775 -0.0407084 -0.167719 0.00417115 -0.0487998 
-0.164969 0.0156247 -0.0557778 -0.163772 0.0252911 -0.0615474 -0.163399 0.0340081 -0.0666752 
-0.167892 0.0432253 -0.0724547 -0.174533 0.0526631 -0.0785218 -0.185901 0.0652897 -0.0874095 
-0.0186364 -0.0809582 -0.0597004 -0.0577752 -0.0832861 -0.0423628 -0.0918024 -0.0755822 -0.0348952 
-0.121308 -0.0590039 -0.0361589 -0.139066 -0.0409721 -0.0403106 -0.148013 -0.0218502 -0.0466285 
-0.151093 -0.00531799 -0.0521728 -0.150456 0.00957412 -0.0572272 -0.150476 0.0225815 -0.0616237 
-0.150845 0.0345876 -0.0656707 -0.154714 0.0469485 -0.0703819 -0.160128 0.0594658 -0.0753862 
-0.168777 0.0750322 -0.0826803 -0.0258638 -0.09454 -0.0746667 -0.0540482 -0.0956355 -0.0599917 
-0.0796947 -0.0872772 -0.0519172 -0.103096 -0.0705558 -0.0496816 -0.118508 -0.0516421 -0.0502604 
-0.127928 -0.0310842 -0.0529499 -0.132507 -0.0124766 -0.05583 -0.134019 0.00489583 -0.0588308 
-0.135329 0.0205384 -0.0617505 -0.136532 0.035262 -0.0646272 -0.139842 0.0502513 -0.068199 
-0.144081 0.065358 -0.0720774 -0.150065 0.0832366 -0.0777258 -0.0298866 -0.0893952 -0.0818626 
-0.0503304 -0.0897083 -0.0694173 -0.0695971 -0.082058 -0.0615835 -0.0878225 -0.0673631 -0.0578291 
-0.100588 -0.050124 -0.0565108 -0.109258 -0.0309768 -0.0570194 -0.114143 -0.0128694 -0.0581341 
-0.116629 0.00457921 -0.0596325 -0.118543 0.0208394 -0.0613788 -0.120154 0.0364683 -0.0632567 
-0.122929 0.0524259 -0.0658249 -0.126219 0.0685286 -0.0686976 -0.130276 0.0869751 -0.0729492 
-0.0331885 -0.0800367 -0.08731 -0.0466148 -0.0796688 -0.076997 -0.0599517 -0.0730331 -0.0695947 
-0.0732097 -0.0608528 -0.0647672 -0.0832611 -0.0458635 -0.0619288 -0.0909075 -0.0287675 -0.0605823 
-0.0958286 -0.01174 -0.0601337 -0.0990237 0.00524397 -0.0602538 -0.101388 0.0216679 -0.0608948 
-0.103311 0.0377943 -0.0618126 -0.105558 0.0543466 -0.0634077 -0.107948 0.0710869 -0.0653018 
-0.110244 0.0897089 -0.0682128 -0.0339847 -0.0684955 -0.0867331 -0.0431095 -0.0675448 -0.0780608 
-0.0525174 -0.0616586 -0.0714309 -0.0621759 -0.0514065 -0.0666079 -0.0698284 -0.0384703 -0.0633808 
-0.0759766 -0.0235212 -0.0613508 -0.0801688 -0.0080644 -0.0602194 -0.0831224 0.00771385 -0.0596573 
-0.0852819 0.0234339 -0.0596785 -0.0870196 0.0391232 -0.0600098 -0.0887131 0.0553421 -0.0609576 
-0.090387 0.0717947 -0.0621775 -0.0916142 0.0897359 -0.0641674 -0.0343633 -0.0565905 -0.0851521 
-0.0396393 -0.0550734 -0.0780385 -0.0454517 -0.0498926 -0.072238 -0.0517385 -0.0414709 -0.0675989 
-0.0570448 -0.0305551 -0.0641718 -0.0616156 -0.0177687 -0.0616536 -0.0649514 -0.00396441 -0.0599862 
-0.0675051 0.0104846 -0.0588578 -0.0693508 0.0253563 -0.0583402 -0.0708205 0.0404525 -0.0581472 
-0.0719561 0.0561833 -0.0585019 -0.0729444 0.072194 -0.0590984 -0.0732185 0.0893117 -0.0602372 
-0.0332621 -0.0480395 -0.0804504 -0.0361509 -0.0461227 -0.0745363 -0.0395937 -0.0412845 -0.0695909 
-0.0435266 -0.0338621 -0.0655024 -0.0469494 -0.0242061 -0.0623731 -0.0499898 -0.0128747 -0.059963 
-0.0522339 -0.000346596 -0.058291 -0.0539737 0.0129394 -0.0570864 -0.0551818 0.0269002 -0.0564359 
-0.0561075 0.0412195 -0.0560798 -0.0566973 0.0562314 -0.0561875 -0.0571387 0.0715489 -0.0564997 
-0.0569177 0.0877252 -0.0572041 -0.0319927 -0.0398697 -0.0753941 -0.0326604 -0.037572 -0.0706386 
-0.0338729 -0.0330353 -0.0665514 -0.0355676 -0.0265178 -0.0630551 -0.0371596 -0.018035 -0.0602801 
-0.0386747 -0.00807824 -0.058046 -0.0398003 0.00321642 -0.0564297 -0.0406793 0.0153584 -0.0552046 
-0.0412131 0.0284012 -0.0544673 -0.0415635 0.0419226 -0.0539892 -0.0416086 0.0561894 -0.0538891 
-0.0415191 0.0707852 -0.0539557 -0.0408549 0.0860066 -0.0542729 -0.0300523 -0.0355078 -0.0688994 
-0.0291364 -0.0330229 -0.0651033 -0.0287279 -0.0286306 -0.0618313 -0.0287682 -0.022551 -0.059023 
-0.0288801 -0.0146957 -0.0567941 -0.0290456 -0.00550864 -0.0549998 -0.0290543 0.00503159 -0.0537221 
-0.0289637 0.0164288 -0.0527717 -0.0287149 0.028825 -0.0522378 -0.028382 0.041752 -0.0519252 
-0.0279059 0.0554618 -0.0519207 -0.0273666 0.0695171 -0.0520521 -0.0264987 0.0840941 -0.0523452 
-0.0280681 -0.0313943 -0.0623109 -0.0256102 -0.0287347 -0.0594611 -0.0236203 -0.0244766 -0.0570017 
-0.0220445 -0.0188044 -0.0548876 -0.020699 -0.011541 -0.0532173 -0.0195264 -0.00308427 -0.0518799 
-0.0184183 0.00673276 -0.0509593 -0.0173512 0.0174113 -0.0503028 -0.0163127 0.0291786 -0.0499913 
-0.0152894 0.0415244 -0.049863 -0.0142935 0.0546895 -0.0499739 -0.0133097 0.0682161 -0.0501903 
-0.0122537 0.082169 -0.050483 -0.0259168 -0.0304538 -0.0551635 -0.0221459 -0.0277722 -0.053148 
-0.0188292 -0.0236156 -0.0514529 -0.0159142 -0.0181541 -0.0500413 -0.0132997 -0.0111889 -0.0489987 
-0.0109106 -0.00309586 -0.0482327 -0.00871291 0.00636155 -0.0478246 -0.00663646 0.016683 -0.0476433 
-0.00474901 0.0281626 -0.0477675 -0.00296196 0.0402574 -0.048054 -0.00141767 0.0532451 -0.0485498 
1.95233e-05 0.0666268 -0.0491377 0.00119958 0.0804617 -0.0497656 0.0387941 0.003948 -0.125731 
-0.0386706 -0.00786548 -0.0912306 -0.101471 -0.00954188 -0.0723509 -0.151298 -0.0022509 -0.067289 
-0.176689 0.00588543 -0.0660637 -0.183754 0.0146558 -0.0677157 -0.182718 0.0212782 -0.0686997 
-0.176552 0.0265403 -0.0692607 -0.17387 0.0308408 -0.0696939 -0.173037 0.0346305 -0.0700592 
-0.179433 0.0393913 -0.0717319 -0.189017 0.0445807 -0.0739815 -0.20614 0.0530928 -0.0792776 
0.0207775 -0.0633262 -0.121672 -0.042002 -0.0716994 -0.0936394 -0.0943414 -0.0664218 -0.0772586 
-0.137445 -0.0490685 -0.0711849 -0.161047 -0.0309662 -0.0687058 -0.170021 -0.0123024 -0.0689228 
-0.171293 0.00266553 -0.0689945 -0.167687 0.0152927 -0.0689742 -0.16624 0.0257593 -0.0689999 
-0.165939 0.0350783 -0.0690501 -0.171366 0.0449674 -0.0702731 -0.179319 0.055108 -0.0720135 
-0.192982 0.0689523 -0.0763184 0.00675466 -0.0876562 -0.121054 -0.0414778 -0.0938742 -0.0979804 
-0.0829718 -0.0866419 -0.0833491 -0.118505 -0.0675113 -0.0761862 -0.139466 -0.0469102 -0.0722611 
-0.149499 -0.0252064 -0.0707643 -0.15282 -0.00689232 -0.0696355 -0.15189 0.0092748 -0.0687398 
-0.151963 0.0231672 -0.0681462 -0.152568 0.0358511 -0.0677131 -0.157289 0.0489381 -0.0683653 
-0.163825 0.0622029 -0.0694964 -0.174285 0.0790024 -0.0727378 -0.00611205 -0.099555 -0.121434 
-0.0398375 -0.10399 -0.102881 -0.0703747 -0.0962499 -0.0897818 -0.0980916 -0.0777404 -0.0815076 
-0.116167 -0.056802 -0.0760807 -0.12701 -0.034042 -0.0727895 -0.132305 -0.013829 -0.0703768 
-0.134086 0.00477085 -0.0685205 -0.135761 0.0212957 -0.0672462 -0.137381 0.0367181 -0.0662811 
-0.141472 0.0524442 -0.0663276 -0.146653 0.0683043 -0.0668204 -0.153985 0.0873709 -0.0689773 
-0.0139856 -0.0911474 -0.11814 -0.0380528 -0.0943205 -0.102892 -0.0606975 -0.0875214 -0.0913711 
-0.0820839 -0.0719007 -0.0831459 -0.0969976 -0.0533956 -0.077269 -0.107057 -0.0327271 -0.0731534 
-0.11279 -0.0134533 -0.0700627 -0.115785 0.00493718 -0.0676212 -0.1182 0.021905 -0.0658839 
-0.120307 0.0381172 -0.0645206 -0.123785 0.0547093 -0.0640822 -0.127868 0.0714692 -0.0640518 
-0.132948 0.0909404 -0.065342 -0.0207356 -0.0781708 -0.11402 -0.0362355 -0.0801997 -0.101804 
-0.0516772 -0.0746672 -0.0918706 -0.0670675 -0.0624456 -0.0839556 -0.0787579 -0.046997 -0.0778653 
-0.0876732 -0.0291283 -0.0731435 -0.0935006 -0.0114323 -0.0695112 -0.0973723 0.00615434 -0.066569 
-0.100332 0.0230727 -0.0644175 -0.102808 0.039636 -0.0626862 -0.105677 0.0566952 -0.0617901 
-0.10872 0.0739733 -0.0612625 -0.111744 0.0934301 -0.0617349 -0.0237901 -0.0645052 -0.107432 
-0.0342917 -0.0655655 -0.0973273 -0.0451715 -0.0608127 -0.0888004 -0.056386 -0.0509177 -0.0816697 
-0.0653196 -0.0379641 -0.0759714 -0.0725425 -0.0227168 -0.0713475 -0.0775591 -0.00695406 -0.067715 
-0.0811783 0.00913502 -0.0647104 -0.083913 0.0251362 -0.0624608 -0.0861778 0.0410907 -0.0606125 
-0.0884048 0.0576568 -0.0594935 -0.0906151 0.0744928 -0.0586962 -0.0923822 0.0930583 -0.0586738 
-0.0262286 -0.0507247 -0.100434 -0.0323267 -0.0508456 -0.0922855 -0.0390849 -0.0467916 -0.0851352 
-0.046427 -0.0390443 -0.0788678 -0.0526815 -0.0284922 -0.0736625 -0.0581205 -0.0158365 -0.0692537 
-0.0621755 -0.00206634 -0.0657112 -0.0653542 0.0124096 -0.0627174 -0.067735 0.0273491 -0.0604224 
-0.0696919 0.0425348 -0.0584989 -0.0712715 0.0584477 -0.0571961 -0.0726846 0.0746814 -0.0561672 
-0.0733274 0.0922097 -0.0557037 -0.026541 -0.0413972 -0.0926255 -0.0300252 -0.0408759 -0.0858665 
-0.0341722 -0.0370918 -0.0798466 -0.0389057 -0.0304215 -0.0744803 -0.0430771 -0.0212743 -0.0699523 
-0.0468269 -0.0102697 -0.0660529 -0.0496796 0.00203942 -0.0628879 -0.0519641 0.0151747 -0.060188 
-0.0536377 0.0290456 -0.0580985 -0.0549867 0.0433074 -0.0563334 -0.0559406 0.0583504 -0.0550883 
-0.0567203 0.073738 -0.0540726 -0.0567597 0.0901347 -0.0534803 -0.0266118 -0.0325757 -0.0847249 
-0.0276854 -0.031446 -0.079291 -0.029393 -0.0278832 -0.0743734 -0.0316614 -0.022168 -0.0699126 
-0.0338173 -0.0143127 -0.0660828 -0.0358888 -0.00485214 -0.0627263 -0.0375118 0.00605633 -0.0599715 
-0.0388506 0.0178818 -0.0575977 -0.0397768 0.0306834 -0.0557422 -0.0404838 0.0440036 -0.0541621 
-0.0408146 0.0581521 -0.0530021 -0.0409794 0.072666 -0.0520275 -0.0404747 0.0879203 -0.0513418 
-0.0256915 -0.0280486 -0.0767677 -0.025105 -0.0266023 -0.0723522 -0.0250966 -0.0231159 -0.0683555 
-0.0255995 -0.0178247 -0.0647294 -0.0261732 -0.0106275 -0.0616213 -0.0268001 -0.00200074 -0.0589017 
-0.0272278 0.00806984 -0.0566911 -0.0275294 0.0190548 -0.0548029 -0.027614 0.0311032 -0.0533596 
-0.0275834 0.0437165 -0.0521525 -0.0273369 0.0571785 -0.0512938 -0.0269952 0.0710148 -0.0505888 
-0.0262234 0.0854601 -0.0500873 -0.0247066 -0.0238016 -0.0688067 -0.0225089 -0.0220577 -0.0653896 
-0.0208316 -0.0186382 -0.0623021 -0.0196146 -0.0137364 -0.059506 -0.0186345 -0.00715597 -0.0571211 
-0.0178319 0.000683306 -0.0550446 -0.0170667 0.0099527 -0.0533871 -0.016325 0.0201278 -0.0519948 
-0.015562 0.0314436 -0.0509752 -0.0147876 0.0433653 -0.0501535 -0.0139668 0.0561543 -0.0496102 
-0.0131256 0.0693258 -0.0491897 -0.0121047 0.0829839 -0.0488905 -0.0233866 -0.0229356 -0.0610839 
-0.0198463 -0.0210938 -0.0584944 -0.0168029 -0.0177241 -0.0561959 -0.014199 -0.0130028 -0.0541547 
-0.0119037 -0.00671786 -0.0524746 -0.00983989 0.000739711 -0.0510654 -0.00794788 0.00960696 -0.0500316 
-0.00616469 0.019367 -0.0492355 -0.00452681 0.0303129 -0.0487805 -0.00296614 0.0418889 -0.0485066 
-0.00157479 0.0543784 -0.0484849 -0.000258151 0.067271 -0.0485744 0.000916808 0.0806471 -0.04875 
0.0820036 0.0104106 -0.233564 -0.0132681 -0.00766185 -0.18714 -0.0896797 -0.0120467 -0.153761 
-0.149408 -0.00432336 -0.131921 -0.179179 0.00452606 -0.115682 -0.186482 0.01422 -0.103642 
-0.184863 0.0214013 -0.0937587 -0.177593 0.0269912 -0.0852408 -0.174669 0.0315355 -0.0785087 
-0.174052 0.0355243 -0.0727254 -0.181622 0.0406395 -0.068952 -0.192803 0.0462517 -0.0660653 
-0.212693 0.0556414 -0.0657464 0.0552282 -0.0655422 -0.209754 -0.020331 -0.0792265 -0.173204 
-0.0828095 -0.0752169 -0.145858 -0.133717 -0.0555551 -0.126652 -0.161131 -0.0352171 -0.112013 
-0.170925 -0.0143721 -0.100798 -0.172158 0.00197597 -0.0915436 -0.16797 0.015476 -0.0835298 
-0.166508 0.0265125 -0.0771127 -0.166496 0.0362404 -0.0715439 -0.172959 0.0466391 -0.0677517 
-0.18228 0.0573337 -0.0647433 -0.198179 0.0722293 -0.0639391 0.0343494 -0.0905418 -0.190911 
-0.0227326 -0.101331 -0.161714 -0.0715459 -0.0951212 -0.138926 -0.113045 -0.0738741 -0.121808 
-0.137241 -0.0511325 -0.108395 -0.148459 -0.0272703 -0.0977589 -0.152194 -0.00753798 -0.0889645 
-0.151189 0.00957864 -0.0813364 -0.151504 0.0241008 -0.075187 -0.152521 0.0372445 -0.0698233 
-0.158179 0.0508713 -0.0660291 -0.165886 0.0647112 -0.0629273 -0.178119 0.0825547 -0.0616778 
0.0151776 -0.100792 -0.173504 -0.0237848 -0.109118 -0.150931 -0.0590106 -0.102501 -0.132276 
-0.0909309 -0.0826657 -0.117088 -0.111659 -0.0601504 -0.104791 -0.123993 -0.0356255 -0.0946627 
-0.130128 -0.0141829 -0.0862801 -0.132337 0.00530758 -0.0790033 -0.13452 0.0224448 -0.073108 
-0.136688 0.038332 -0.0679466 -0.141629 0.0545919 -0.0641552 -0.147794 0.0710163 -0.0609682 
-0.156454 0.0910672 -0.0592851 0.00305347 -0.0895229 -0.157872 -0.0243653 -0.0959878 -0.139774 
-0.0501981 -0.0904656 -0.124258 -0.0746282 -0.0743395 -0.111027 -0.0916597 -0.0549763 -0.100036 
-0.103142 -0.0331852 -0.090725 -0.109808 -0.0130907 -0.0829582 -0.113424 0.00592925 -0.0761697 
-0.116442 0.0233493 -0.0706279 -0.119143 0.0399193 -0.0657483 -0.123377 0.0569478 -0.0620548 
-0.128289 0.0741785 -0.0588846 -0.134384 0.094477 -0.0569376 -0.00748494 -0.0734121 -0.14264 
-0.0248395 -0.0781512 -0.128533 -0.0422233 -0.0740616 -0.115933 -0.0596329 -0.0621619 -0.104665 
-0.0729161 -0.0466089 -0.0950225 -0.0831043 -0.028316 -0.086598 -0.0898807 -0.0102577 -0.079493 
-0.0944961 0.0076518 -0.0732236 -0.0981181 0.0248297 -0.0680576 -0.101212 0.041619 -0.0634777 
-0.104743 0.0589965 -0.0599035 -0.108466 0.0766335 -0.056773 -0.112222 0.0967385 -0.0546003 
-0.0129853 -0.0581688 -0.129308 -0.0246938 -0.0614696 -0.117791 -0.0369147 -0.0581112 -0.107296 
-0.0495889 -0.0488618 -0.0977046 -0.0597571 -0.0361776 -0.0893498 -0.0680457 -0.0209173 -0.0819226 
-0.0739087 -0.00510426 -0.0755952 -0.0782354 0.0110587 -0.0699642 -0.0815897 0.027137 -0.0652824 
-0.0844274 0.0431703 -0.0611049 -0.0872185 0.0599141 -0.0577752 -0.0899892 0.0769713 -0.0548195 
-0.0923045 0.0959939 -0.0526252 -0.0176461 -0.0430702 -0.116293 -0.0244447 -0.0449806 -0.107133 
-0.0320504 -0.0422364 -0.0986079 -0.0403701 -0.0353746 -0.0906441 -0.0475288 -0.0254022 -0.0835673 
-0.0538169 -0.013097 -0.0771559 -0.058596 0.000435972 -0.0716253 -0.0624192 0.0147464 -0.0666526 
-0.0653605 0.0295821 -0.0624732 -0.0678333 0.0446969 -0.0587152 -0.0698792 0.0606432 -0.0556507 
-0.0717366 0.0769562 -0.0528923 -0.0727611 0.0947482 -0.0507105 -0.0194532 -0.0333874 -0.105127 
-0.0234415 -0.0343668 -0.0975405 -0.0282178 -0.0317691 -0.090434 -0.0336911 -0.0260069 -0.0837516 
-0.0385747 -0.0175327 -0.0777677 -0.0430161 -0.00702459 -0.0723075 -0.0464776 0.00490433 -0.0675734 
-0.0493187 0.017733 -0.0632989 -0.0514756 0.0313715 -0.0596919 -0.0532691 0.0454402 -0.0564393 
-0.0546059 0.0603862 -0.0537607 -0.0557412 0.0757193 -0.0513352 -0.0560557 0.0922095 -0.0493559 
-0.020936 -0.02432 -0.0941696 -0.0223527 -0.0244207 -0.0880688 -0.0245024 -0.0219163 -0.0823185 
-0.0273007 -0.0171073 -0.0768783 -0.0299926 -0.00999344 -0.0719661 -0.0326047 -0.00115084 -0.06745 
-0.0347223 0.00925088 -0.0635121 -0.0365267 0.02064 -0.0599405 -0.0378571 0.0330864 -0.0569137 
-0.0389355 0.0460944 -0.0541765 -0.0395674 0.0600171 -0.0518973 -0.0400023 0.0743434 -0.0498201 
-0.0396728 0.0895239 -0.0480648 -0.0210606 -0.0198882 -0.0846654 -0.0207586 -0.0195189 -0.0796394 
-0.0211129 -0.0169955 -0.0749184 -0.0220479 -0.0125663 -0.0704673 -0.023065 -0.00611126 -0.0664629 
-0.0241437 0.00186311 -0.0627935 -0.0249908 0.0113698 -0.059618 -0.0256912 0.021847 -0.0567553 
-0.0261209 0.0334539 -0.0543603 -0.0264067 0.0456609 -0.0522139 -0.026405 0.0587839 -0.0504514 
-0.0262763 0.0723109 -0.0488582 -0.0256166 0.0865334 -0.0475058 -0.0210967 -0.0157586 -0.075256 
-0.0191315 -0.0149462 -0.0712779 -0.0177447 -0.0123963 -0.0675649 -0.0168694 -0.00830945 -0.0640864 
-0.0162453 -0.00246758 -0.0609791 -0.0158098 0.00469055 -0.0581501 -0.0153912 0.0133434 -0.0557348 
-0.0149832 0.022943 -0.0535814 -0.0145075 0.0337334 -0.0518216 -0.0139956 0.0451565 -0.050271 
-0.0133649 0.0574943 -0.0490327 -0.0126817 0.0702356 -0.0479323 -0.0117122 0.083523 -0.0469946 
-0.0206015 -0.01511 -0.0669257 -0.0172774 -0.0141121 -0.06377 -0.0144974 -0.0115472 -0.0608728 
-0.0121985 -0.00759611 -0.0582041 -0.0102224 -0.00203215 -0.0558817 -0.00848834 0.00474148 -0.0538191 
-0.00691128 0.012964 -0.0521415 -0.00543366 0.0221042 -0.0507078 -0.00405995 0.0324552 -0.0496431 
-0.00274144 0.0434496 -0.0487745 -0.00151908 0.0553769 -0.0481949 -0.000339135 0.0677157 -0.0477428 
0.00081448 0.0805683 -0.0474192 0.136802 0.0534371 -0.345787 0.0377513 0.0229776 -0.291216 
-0.0446409 0.00913035 -0.243615 -0.112297 0.00997855 -0.20218 -0.148887 0.0140143 -0.168462 
-0.162179 0.0204408 -0.140533 -0.165259 0.0254476 -0.118471 -0.161872 0.0295554 -0.100125 
-0.161935 0.03318 -0.0858145 -0.16383 0.0365478 -0.0736476 -0.173334 0.0413403 -0.0641464 
-0.186196 0.0467613 -0.0558212 -0.207447 0.0561542 -0.0492356 0.0970257 -0.0234292 -0.299346 
0.0194576 -0.048423 -0.257359 -0.0468274 -0.0531879 -0.219632 -0.103132 -0.0400581 -0.185673 
-0.135452 -0.024416 -0.157296 -0.149784 -0.00688971 -0.133106 -0.154715 0.00716146 -0.113566 
-0.153692 0.0190117 -0.096973 -0.154734 0.0289651 -0.0837779 -0.156873 0.0379108 -0.0723883 
-0.165023 0.0478524 -0.0633396 -0.175824 0.0582333 -0.0553237 -0.192916 0.0730371 -0.0488736 
0.0668717 -0.0527268 -0.259852 0.00874501 -0.0728711 -0.227009 -0.0425372 -0.0740941 -0.196834 
-0.0877648 -0.0585792 -0.169019 -0.11553 -0.0400724 -0.145262 -0.130199 -0.0193218 -0.124548 
-0.136843 -0.00181199 -0.107488 -0.138404 0.0136452 -0.092743 -0.140796 0.0270323 -0.0808105 
-0.14363 0.0393196 -0.0703723 -0.150733 0.0524088 -0.0619449 -0.159719 0.0658517 -0.0544047 
-0.172975 0.0835224 -0.0482407 0.0395032 -0.0682546 -0.22237 0.000226936 -0.0837276 -0.197674 
-0.0363721 -0.0830126 -0.174379 -0.070603 -0.0679774 -0.152323 -0.0937315 -0.0491364 -0.132977 
-0.108533 -0.0274411 -0.115664 -0.11685 -0.00808965 -0.101071 -0.12106 0.00977738 -0.0882011 
-0.124909 0.02576 -0.0775735 -0.128568 0.0407416 -0.0681372 -0.134712 0.0563989 -0.06038 
-0.141953 0.0723544 -0.0533636 -0.151469 0.0921556 -0.0475292 0.0222426 -0.0618027 -0.193831 
-0.0052445 -0.0737518 -0.174318 -0.0319353 -0.0729033 -0.15564 -0.0579216 -0.060734 -0.137697 
-0.0766682 -0.0444931 -0.121676 -0.0899847 -0.0251984 -0.107095 -0.0983305 -0.00700337 -0.0945925 
-0.103528 0.0104952 -0.0834063 -0.107895 0.0267962 -0.0740212 -0.11182 0.0424608 -0.065593 
-0.117054 0.0588565 -0.0585614 -0.122866 0.0755746 -0.0521459 -0.129672 0.0955622 -0.0467335 
0.00725632 -0.0504054 -0.167304 -0.0100304 -0.0590886 -0.152308 -0.0278873 -0.0585128 -0.137736 
-0.0462485 -0.0497463 -0.123538 -0.0606703 -0.0367656 -0.110596 -0.0721376 -0.0206242 -0.0985974 
-0.0801426 -0.00426018 -0.0881004 -0.0859548 0.0122449 -0.0785546 -0.0906268 0.0283517 -0.070398 
-0.0946932 0.044247 -0.0629793 -0.0990284 0.0609692 -0.0566857 -0.103482 0.0780563 -0.0508884 
-0.107811 0.0977929 -0.0459188 -0.000979045 -0.0386058 -0.147624 -0.012625 -0.0449276 -0.135424 
-0.0251741 -0.0443358 -0.123507 -0.0385223 -0.037628 -0.111841 -0.0495298 -0.0270924 -0.101092 
-0.0587818 -0.0136861 -0.091032 -0.0655955 0.000623458 -0.0821252 -0.070865 0.0155051 -0.0739488 
-0.075061 0.0305733 -0.06688 -0.0786867 0.0457405 -0.0603996 -0.0821341 0.0618212 -0.0548389 
-0.0855029 0.078305 -0.049684 -0.0882805 0.0969131 -0.0452109 -0.00808924 -0.0267392 -0.129085 
-0.0148543 -0.0308504 -0.119394 -0.0226835 -0.0301944 -0.109891 -0.0314541 -0.0253212 -0.100554 
-0.039199 -0.017095 -0.0918507 -0.0461746 -0.00635405 -0.083622 -0.0516553 0.00586384 -0.0762361 
-0.0561892 0.0190171 -0.069384 -0.0597789 0.0329058 -0.0633796 -0.0628669 0.0471852 -0.0578256 
-0.0654284 0.0624632 -0.0529969 -0.0677575 0.0781816 -0.0484883 -0.0691391 0.095515 -0.0445208 
-0.0114829 -0.0191887 -0.115033 -0.0154827 -0.0219251 -0.106967 -0.0204561 -0.0210251 -0.0990728 
-0.0262909 -0.0169084 -0.0913313 -0.0316415 -0.00991586 -0.0840937 -0.036629 -0.000766498 -0.077234 
-0.0406533 0.00998658 -0.0710482 -0.0440677 0.0217553 -0.0652892 -0.0467512 0.0344964 -0.0602183 
-0.0490465 0.047754 -0.0555129 -0.0508012 0.0620239 -0.0514002 -0.0523175 0.0767403 -0.0475491 
-0.0529097 0.0927288 -0.044131 -0.0144542 -0.0121286 -0.101492 -0.0159291 -0.0135852 -0.0949488 
-0.0182587 -0.0124209 -0.0885721 -0.0213443 -0.00893812 -0.0823427 -0.0243993 -0.00305701 -0.0765054 
-0.0274312 0.00462281 -0.0709622 -0.0299852 0.0139823 -0.0659399 -0.0322365 0.0244056 -0.0612477 
-0.0339798 0.0360026 -0.0570954 -0.0354533 0.0482233 -0.0532299 -0.0364103 0.0614618 -0.0498314 
-0.0371395 0.0751493 -0.046639 -0.0370112 0.0897848 -0.0437753 -0.0156313 -0.00896332 -0.0907595 
-0.0154265 -0.00973894 -0.0852898 -0.0159676 -0.00835967 -0.0800013 -0.0171686 -0.00507417 -0.0748732 
-0.018508 0.000295426 -0.070096 -0.0199512 0.00722807 -0.0655819 -0.0211742 0.0157747 -0.061518 
-0.0222576 0.0253436 -0.0577392 -0.0230392 0.0361242 -0.054423 -0.0236604 0.0475485 -0.0513526 
-0.023928 0.0599638 -0.0486761 -0.0240394 0.0728161 -0.0461734 -0.0235267 0.0864375 -0.0439279 
-0.0166913 -0.00605203 -0.0802102 -0.014862 -0.00618572 -0.0757846 -0.0136705 -0.00459471 -0.0715564 
-0.0130432 -0.00147802 -0.0675029 -0.0127048 0.00341918 -0.0637636 -0.0125832 0.00965175 -0.0602599 
-0.0124842 0.0174235 -0.0571408 -0.0123996 0.0261699 -0.0542654 -0.0122181 0.0361554 -0.0517799 
-0.0119851 0.0467991 -0.0495017 -0.0115701 0.0584047 -0.0475477 -0.0110749 0.0704346 -0.0457368 
-0.0101997 0.0830639 -0.0441138 -0.0169788 -0.00617389 -0.0714464 -0.013825 -0.0060102 -0.0678184 
-0.0112605 -0.00429921 -0.0644123 -0.00921745 -0.00121948 -0.0612026 -0.00752533 0.00347953 -0.0583078 
-0.00609644 0.00939299 -0.0556492 -0.00482669 0.0167738 -0.0533621 -0.00365774 0.0250838 -0.0513103 
-0.00256297 0.0346243 -0.049631 -0.00150762 0.0448186 -0.0481494 -0.000482666 0.0559649 -0.046972 
0.000528876 0.0675312 -0.0459286 0.0016176 0.0796408 -0.0450411 0.194209 0.10469 -0.458999 
0.0945346 0.0604651 -0.39713 0.0078789 0.0356359 -0.335369 -0.0672609 0.0279648 -0.273704 
-0.11122 0.0259434 -0.221954 -0.131795 0.0281593 -0.177641 -0.140763 0.0303767 -0.143106 
-0.14238 0.0325952 -0.114763 -0.146156 0.0350382 -0.0927808 -0.15108 0.0376005 -0.0741775 
-0.16269 0.0419179 -0.0588851 -0.17725 0.0470096 -0.0450534 -0.199546 0.0562089 -0.0320545 
0.140476 0.0286579 -0.389277 0.0633228 -0.00899502 -0.342545 -0.00534399 -0.0242234 -0.29457 
-0.0665035 -0.0196147 -0.245494 -0.103976 -0.0102281 -0.203025 -0.123682 0.00274195 -0.16551 
-0.133152 0.0136689 -0.135471 -0.136138 0.0233017 -0.110166 -0.14025 0.0318 -0.0901174 
-0.14496 0.0396956 -0.0728615 -0.154942 0.0489626 -0.0585021 -0.16725 0.0588346 -0.0454204 
-0.185299 0.0732895 -0.0332037 0.100503 -0.00575405 -0.328588 0.0430874 -0.0363299 -0.292655 
-0.00957227 -0.046428 -0.255266 -0.0580254 -0.0384113 -0.216588 -0.0894358 -0.0255737 -0.182295 
-0.108064 -0.00912043 -0.151292 -0.118178 0.00534764 -0.125831 -0.1229 0.0185584 -0.103882 
-0.127782 0.0304133 -0.086115 -0.13275 0.041548 -0.0705699 -0.14141 0.0538571 -0.0574675 
-0.151699 0.0666844 -0.0454425 -0.165811 0.0839085 -0.0342686 0.064512 -0.0281179 -0.270514 
0.0260295 -0.0514705 -0.244123 -0.0111968 -0.0577326 -0.216394 -0.0473123 -0.0488761 -0.18748 
-0.0727842 -0.0348908 -0.161045 -0.0902733 -0.017059 -0.136469 -0.101074 -0.000545845 -0.115611 
-0.107638 0.0151321 -0.0971097 -0.113416 0.0295625 -0.0817249 -0.118777 0.0433302 -0.067996 
-0.126203 0.0581293 -0.0562442 -0.134541 0.0733834 -0.0453647 -0.144806 0.0926572 -0.0353091 
0.0419156 -0.0282109 -0.22894 0.0150988 -0.0461375 -0.208338 -0.0119256 -0.0507271 -0.186682 
-0.0391336 -0.0435186 -0.164095 -0.0595045 -0.0312955 -0.143062 -0.0747475 -0.0153115 -0.123195 
-0.0849415 0.00037208 -0.105943 -0.0919376 0.0158654 -0.0903477 -0.0978204 0.0306937 -0.0771107 
-0.103112 0.0451687 -0.0651266 -0.1094 0.060691 -0.0547381 -0.116129 0.0766753 -0.0450536 
-0.123578 0.096096 -0.0361245 0.022333 -0.0232928 -0.191078 0.00554659 -0.0361977 -0.175419 
-0.0124528 -0.0396017 -0.159031 -0.0315252 -0.034601 -0.141997 -0.0469836 -0.0247949 -0.125814 