# vtk DataFile Version 2.0
vtk output
ASCII
DATASET RECTILINEAR_GRID
DIMENSIONS 13 13 13
X_COORDINATES 13 float
-7.5 -7.29167 -7.08333 -6.875 -6.66667 -6.45833 -6.25 -6.04167 -5.83333 
-5.625 -5.41667 -5.20833 -5 
Y_COORDINATES 13 float
-2.5 -2.29167 -2.08333 -1.875 -1.66667 -1.45833 -1.25 -1.04167 -0.833333 
-0.625 -0.416667 -0.208333 0 
Z_COORDINATES 13 float
2.5 2.70833 2.91667 3.125 3.33333 3.54167 3.75 3.95833 4.16667 
4.375 4.58333 4.79167 5 
POINT_DATA 2197
VECTORS grad float
-0.190718 -0.0600945 -0.178354 -0.118281 -0.0609635 -0.205368 -0.0390712 -0.0606893 -0.223403 
0.0570702 -0.0575573 -0.218989 0.140716 -0.0534053 -0.205628 0.198589 -0.0471495 -0.173816 
0.238497 -0.0409124 -0.140999 0.247466 -0.0347075 -0.106451 0.247315 -0.0291064 -0.0755187 
0.233938 -0.0243807 -0.0498298 0.218621 -0.0203387 -0.0283176 0.200924 -0.0171358 -0.0119311 
0.183946 -0.0144873 0.0011878 -0.189071 0.0280263 -0.180388 -0.11635 0.0384139 -0.208447 
-0.0368466 0.0459377 -0.227437 0.0596174 0.0463018 -0.223757 0.143554 0.0442619 -0.210921 
0.201654 0.037264 -0.179201 0.241676 0.0304812 -0.146347 0.250564 0.0240687 -0.111541 
0.250223 0.0186918 -0.0803369 0.236502 0.0148166 -0.0543553 0.220819 0.0116895 -0.0325572 
0.20273 0.00948063 -0.0158933 0.185406 0.00768514 -0.00249724 -0.169871 0.0977865 -0.166481 
-0.10331 0.115305 -0.191409 -0.030845 0.127457 -0.20846 0.0563814 0.126192 -0.205819 
0.132895 0.120224 -0.195021 0.187312 0.104554 -0.167399 0.225627 0.0889087 -0.138367 
0.236208 0.0733048 -0.106906 0.237889 0.059684 -0.0784129 0.226661 0.0489386 -0.0542253 
0.213103 0.0399633 -0.0337585 0.196682 0.03316 -0.0178581 0.180681 0.027544 -0.00495992 
-0.145591 0.162232 -0.147958 -0.0870538 0.185686 -0.168548 -0.0237501 0.201707 -0.182823 
0.0514714 0.199145 -0.181308 0.118328 0.189904 -0.172985 0.16793 0.166888 -0.150622 
0.20401 0.143583 -0.126528 0.216801 0.119779 -0.0994542 0.221142 0.0987059 -0.0745371 
0.213231 0.0815915 -0.0527476 0.202516 0.0671502 -0.0340803 0.18836 0.0559893 -0.0192447 
0.174165 0.0467331 -0.00706875 -0.11907 0.191462 -0.126223 -0.0695337 0.214648 -0.142321 
-0.0163112 0.230515 -0.153557 0.0461262 0.228088 -0.152639 0.102305 0.218846 -0.146348 
0.145575 0.195553 -0.128972 0.178066 0.17138 -0.109855 0.191993 0.145693 -0.0877371 
0.19842 0.122459 -0.0670353 0.193973 0.102778 -0.0483865 0.186484 0.0858765 -0.0321725 
0.175262 0.0723844 -0.0189463 0.163529 0.0610482 -0.00793617 -0.0920462 0.212768 -0.103765 
-0.0517293 0.234289 -0.115336 -0.00879498 0.249099 -0.123475 0.0406831 0.247128 -0.123035 
0.0859547 0.238624 -0.118674 0.122551 0.216642 -0.106226 0.151148 0.193129 -0.0920932 
0.165969 0.166982 -0.0750601 0.174354 0.142776 -0.0587177 0.173404 0.121385 -0.0433767 
0.169227 0.102699 -0.0297629 0.16109 0.0873319 -0.0182688 0.151967 0.0742667 -0.00852427 
-0.0711074 0.211692 -0.0864818 -0.0379901 0.229835 -0.0949542 -0.0029384 0.242388 -0.100894 
0.0369497 0.240967 -0.100503 0.0738468 0.233938 -0.097176 0.104575 0.215342 -0.0877934 
0.129251 0.194947 -0.0769572 0.143503 0.171453 -0.0636176 0.15242 0.14922 -0.0505901 
0.1536 0.128816 -0.0380153 0.151718 0.110652 -0.0266635 0.146078 0.0952387 -0.0168128 
0.139213 0.0819312 -0.00832154 -0.0511828 0.206884 -0.0700606 -0.0249285 0.221365 -0.0756733 
0.00264155 0.231463 -0.0795641 0.0335013 0.230605 -0.0791498 0.0624459 0.225174 -0.0767069 
0.0874405 0.210311 -0.0700799 0.10819 0.193443 -0.0622587 0.12163 0.173121 -0.0523809 
0.130842 0.153352 -0.0424943 0.133924 0.134383 -0.0325952 0.134167 0.117127 -0.023449 
0.130925 0.101972 -0.015227 0.126259 0.08867 -0.007987 -0.0376215 0.194389 -0.059796 
-0.0160963 0.205963 -0.0636532 0.00640524 0.214057 -0.0662341 0.0313477 0.213452 -0.0656241 
0.054924 0.209149 -0.0635047 0.0756829 0.197218 -0.0582722 0.0932602 0.183402 -0.0520788 
0.105358 0.166338 -0.0442305 0.114069 0.149415 -0.0362731 0.117869 0.132695 -0.0281576 
0.119178 0.117212 -0.0205445 0.117429 0.103247 -0.013548 0.114261 0.0907962 -0.00729179 
-0.0247833 0.18102 -0.0502311 -0.00774466 0.189773 -0.0524582 0.00996253 0.195915 -0.0538132 
0.0293411 0.195528 -0.0529879 0.0478429 0.192299 -0.0511283 0.0645363 0.183209 -0.0471356 
0.0790265 0.172391 -0.0424123 0.0897223 0.158595 -0.0364309 0.0978417 0.144562 -0.030265 
0.102225 0.130183 -0.0238317 0.104479 0.116571 -0.0176752 0.104122 0.103901 -0.0118585 
0.10237 0.0923981 -0.0065556 -0.016526 0.16673 -0.0451666 -0.00244445 0.173656 -0.0463812 
0.0121501 0.17851 -0.0469341 0.0280272 0.178182 -0.045833 0.0432672 0.175582 -0.0439517 
0.057193 0.168295 -0.0404611 0.069448 0.159512 -0.0363983 0.0788251 0.148153 -0.0313499 
0.0861514 0.13643 -0.0261262 0.0905039 0.124178 -0.0206483 0.0930509 0.112407 -0.0153571 
0.0933821 0.101228 -0.0102951 0.0924331 0.0909339 -0.00563252 -0.00856733 0.15238 -0.0403957 
0.00265675 0.157544 -0.040638 0.0142482 0.161153 -0.0404165 0.0267584 0.160875 -0.0390357 
0.0388548 0.158874 -0.0371142 0.0500979 0.153322 -0.0340777 0.0601731 0.146511 -0.0306225 
0.0682369 0.137535 -0.0264462 0.074757 0.128084 -0.0221093 0.0790387 0.117945 -0.0175394 
0.0818356 0.108014 -0.0130749 0.0828101 0.0983381 -0.00873987 0.0826231 0.0892697 -0.00469726 
-0.00357081 0.139205 -0.0383089 0.00579828 0.143324 -0.037905 0.0154667 0.146193 -0.0371369 
0.0258837 0.145939 -0.0354582 0.0359985 0.144301 -0.0333632 0.0454899 0.139808 -0.0304097 
0.0540785 0.13426 -0.0271323 0.0611125 0.126897 -0.0232973 0.0669043 0.119068 -0.0193362 
0.0708952 0.110565 -0.0151925 0.0736318 0.102142 -0.0111384 0.074829 0.0938179 -0.00719417 
0.0749872 0.0859204 -0.00350648 -0.21992 -0.0644821 -0.138622 -0.137573 -0.0668926 -0.162189 
-0.046714 -0.0678613 -0.178767 0.0654237 -0.0652256 -0.17787 0.162423 -0.0612123 -0.169019 
0.228201 -0.0543579 -0.143765 0.272416 -0.0474552 -0.116969 0.279495 -0.0404692 -0.0875184 
0.276245 -0.0341733 -0.0609175 0.258021 -0.0288782 -0.0384492 0.238174 -0.0243478 -0.0195369 
0.216335 -0.0207559 -0.00498863 0.195889 -0.0177638 0.0067518 -0.21919 0.0344434 -0.141281 
-0.136513 0.0461471 -0.166029 -0.0452571 0.0543605 -0.183647 0.0674481 0.0538484 -0.183439 
0.164987 0.0504827 -0.17497 0.231246 0.0412317 -0.149464 0.275768 0.0324272 -0.122295 
0.282856 0.0243919 -0.0922607 0.279467 0.0177368 -0.0651372 0.260887 0.013083 -0.0422343 
0.240659 0.00940504 -0.0229569 0.218409 0.00692467 -0.00812883 0.197602 0.0049851 0.00385582 
-0.19671 0.111719 -0.130959 -0.121386 0.132359 -0.153096 -0.0386087 0.146474 -0.168982 
0.0628039 0.144279 -0.169239 0.151334 0.136403 -0.162098 0.213295 0.116809 -0.139695 
0.255966 0.0974775 -0.115488 0.265415 0.0785989 -0.088172 0.264726 0.062297 -0.063274 
0.249336 0.0497317 -0.0418819 0.231798 0.0393823 -0.0237411 0.211623 0.0317521 -0.00959036 
0.192445 0.0255714 0.00193133 -0.167934 0.182728 -0.11688 -0.102187 0.210804 -0.135308 
-0.0304576 0.229872 -0.148659 0.0562292 0.226419 -0.149317 0.132987 0.214862 -0.143776 
0.189267 0.186593 -0.125448 0.229461 0.158234 -0.105169 0.241953 0.129722 -0.0815269 
0.244786 0.10473 -0.0596499 0.233613 0.0848426 -0.0403318 0.219653 0.0682665 -0.0237623 
0.202273 0.0557536 -0.010566 0.185299 0.0455316 0.000288074 -0.136684 0.212574 -0.09962 
-0.0814614 0.240254 -0.113999 -0.0216476 0.259156 -0.124443 0.0496451 0.256109 -0.125047 
0.113591 0.244852 -0.120777 0.162382 0.216663 -0.106453 0.198453 0.187649 -0.0902919 
0.212616 0.157214 -0.0709687 0.218218 0.129943 -0.0527931 0.211408 0.107262 -0.0362814 
0.201455 0.0880035 -0.0219139 0.187647 0.0729465 -0.0101776 0.173633 0.0604625 -0.000394647 
-0.104877 0.233159 -0.081644 -0.0603923 0.258681 -0.0918975 -0.0126894 0.276264 -0.0993497 
0.043059 0.273998 -0.0997991 0.0939578 0.263937 -0.0967261 0.134854 0.237798 -0.0863886 
0.166431 0.210011 -0.0743898 0.181957 0.179389 -0.0595301 0.19016 0.151283 -0.0452088 
0.187745 0.126825 -0.0316685 0.181896 0.105682 -0.0196448 0.171833 0.0886075 -0.00948228 
0.160949 0.0742618 -0.000861245 -0.0806014 0.228974 -0.0676296 -0.0443307 0.25034 -0.0750335 
-0.00570533 0.26517 -0.0803662 0.0388073 0.263661 -0.0805209 0.0799098 0.255533 -0.0780645 
0.113979 0.233755 -0.0702229 0.141061 0.209991 -0.0609947 0.15611 0.182805 -0.0493787 
0.165122 0.157284 -0.0379889 0.16538 0.134175 -0.0269269 0.16235 0.113803 -0.0169349 
0.155284 0.0967895 -0.00825587 0.147072 0.0822573 -0.000772717 -0.0575807 0.220661 -0.0542753 
-0.0291038 0.237538 -0.0590425 0.000949678 0.249376 -0.062401 0.0349447 0.248619 -0.0622378 
0.0667927 0.242547 -0.0603011 0.0942123 0.225517 -0.0547069 0.1168 0.20624 -0.0480174 
0.131066 0.183095 -0.0394419 0.140589 0.160728 -0.0308296 0.143232 0.139489 -0.0221639 
0.142806 0.12033 -0.0141515 0.138612 0.103725 -0.00694095 0.132995 0.0892855 -0.000591669 
-0.0421049 0.205036 -0.0459986 -0.0188969 0.218459 -0.0491785 0.00546785 0.227925 -0.0513163 
0.0327251 0.227495 -0.0508492 0.0584632 0.222815 -0.049077 0.0810683 0.209368 -0.0446129 
0.100081 0.193814 -0.0392853 0.112907 0.17463 -0.0324703 0.121956 0.155714 -0.0255427 
0.125528 0.137185 -0.0184518 0.126407 0.120157 -0.011796 0.123979 0.104971 -0.00567409 
0.120102 0.0915432 -0.000201458 -0.0274863 0.18858 -0.0382989 -0.00926056 0.198668 -0.0400106 
0.00974319 0.205831 -0.0410135 0.0306921 0.205681 -0.0402441 0.0506778 0.202317 -0.0385959 
0.0686769 0.192321 -0.0351351 0.0842192 0.180402 -0.0310355 0.0955303 0.165171 -0.0258357 
0.103994 0.149739 -0.0204686 0.108329 0.134016 -0.0148592 0.110365 0.119223 -0.0094891 
0.109577 0.105571 -0.00441269 0.107342 0.0932589 0.000212521 -0.0181374 0.172245 -0.0343841 
-0.00313626 0.180228 -0.0352134 0.0124532 0.18591 -0.0355059 0.0295137 0.185841 -0.0344565 
0.045876 0.183224 -0.0327493 0.060798 0.175352 -0.0296855 0.0738669 0.165826 -0.0261274 
0.0837441 0.153449 -0.0217181 0.0913658 0.140712 -0.0171548 0.0957173 0.127454 -0.0123683 
0.0981214 0.114783 -0.00774513 0.0981357 0.102832 -0.00332237 0.0968114 0.0918887 0.000746939 
-0.00913209 0.155919 -0.030716 0.00275899 0.161876 -0.0307012 0.0150611 0.166131 -0.0303111 
0.028391 0.166129 -0.028983 0.0412687 0.164222 -0.0272049 0.0532135 0.158388 -0.0244985 
0.0638739 0.151173 -0.0214372 0.0723224 0.141579 -0.0177647 0.0790854 0.131486 -0.0139558 
0.0834045 0.120672 -0.00994927 0.0861261 0.110115 -0.00603786 0.0868872 0.0998764 -0.0022432 
0.0864259 0.0903173 0.00128921 -0.00346119 0.14167 -0.0292976 0.0064466 0.146448 -0.0287366 
0.0166818 0.149868 -0.0278801 0.0277355 0.149894 -0.0262846 0.0384557 0.1484 -0.0243431 
0.0484879 0.143773 -0.0216879 0.0575285 0.137994 -0.0187595 0.0648612 0.130232 -0.0153604 
0.0708406 0.121976 -0.011856 0.0748575 0.113004 -0.0081987 0.0775254 0.10414 -0.00462441 
0.0785379 0.0954063 -0.0011519 0.0784527 0.0871429 0.00208701 -0.238042 -0.0683249 -0.0705955 
-0.151463 -0.0721761 -0.0854585 -0.0549025 -0.0743544 -0.0973396 0.0666149 -0.0723506 -0.101766 
0.172176 -0.0685604 -0.100521 0.244828 -0.0610858 -0.0875781 0.293563 -0.0534337 -0.0720924 
0.301109 -0.0454758 -0.0522279 0.296967 -0.0383299 -0.0337534 0.275877 -0.0323614 -0.0172944 
0.253125 -0.027294 -0.00327231 0.228334 -0.0233325 0.00775923 0.205372 -0.0200507 0.0167694 
-0.238489 0.0360862 -0.0738589 -0.15148 0.0480624 -0.0901907 -0.0543146 0.0564011 -0.103331 
0.0682431 0.0556465 -0.108491 0.174789 0.0518881 -0.107521 0.248312 0.0419344 -0.0939076 
0.297606 0.0324589 -0.07765 0.305174 0.0238071 -0.0568385 0.300842 0.0166427 -0.0375728 
0.279255 0.0116351 -0.0205487 0.256 0.00769357 -0.00609035 0.230696 0.00506042 0.00521932 
0.207298 0.00302504 0.0144448 -0.214485 0.117859 -0.0703729 -0.135168 0.140114 -0.0855587 
-0.0469854 0.155422 -0.0977408 0.0633634 0.153364 -0.102414 0.160108 0.145037 -0.101485 
0.228794 0.123778 -0.0890016 0.275954 0.1027 -0.0740219 0.28604 0.0819344 -0.0547429 
0.284647 0.0640177 -0.036785 0.266606 0.0502316 -0.0207427 0.246349 0.0389342 -0.00703797 
0.223372 0.0306912 0.00379786 0.201795 0.0240704 0.0126879 -0.183403 0.193079 -0.064933 
-0.11413 0.224006 -0.078216 -0.0377048 0.245257 -0.0887989 0.0565999 0.242317 -0.0926315 
0.140421 0.230283 -0.0916755 0.202618 0.19949 -0.0808434 0.246863 0.16841 -0.0677349 
0.260191 0.136832 -0.0507061 0.262641 0.109193 -0.0346635 0.249318 0.0872649 -0.0200507 
0.233073 0.0690902 -0.00744416 0.213244 0.0555223 0.00270015 0.194141 0.0445279 0.0110954 
-0.149111 0.223993 -0.0563332 -0.0909495 0.254699 -0.0668786 -0.027307 0.275943 -0.0752012 
0.0500383 0.273532 -0.0779668 0.119633 0.261882 -0.0769605 0.173243 0.231178 -0.0681751 
0.212699 0.19938 -0.0574573 0.227776 0.165698 -0.0434117 0.233277 0.135576 -0.0299852 
0.224893 0.110616 -0.0174566 0.213187 0.0895458 -0.00649491 0.197404 0.0732501 0.00254369 
0.181634 0.059843 0.0101207 -0.114097 0.244938 -0.0470224 -0.0672875 0.273422 -0.0546424 
-0.0166579 0.29332 -0.060556 0.0435222 0.291755 -0.0622035 0.0985989 0.281411 -0.0611417 
0.14315 0.25296 -0.0544919 0.177393 0.222534 -0.0462817 0.193883 0.188707 -0.0353842 
0.202257 0.157731 -0.0247317 0.198863 0.130889 -0.0144345 0.191814 0.107819 -0.00524068 
0.180278 0.0893797 0.002599 0.168035 0.074001 0.00928514 -0.0873713 0.239228 -0.0392311 
-0.0492713 0.263073 -0.0446745 -0.00839672 0.279851 -0.0488142 0.039415 0.278963 -0.0496945 
0.0836459 0.270656 -0.0485832 0.120491 0.247047 -0.0433642 0.149652 0.221139 -0.0369117 
0.165578 0.191272 -0.0283346 0.17486 0.163303 -0.0198164 0.174509 0.138085 -0.0113837 
0.170655 0.115979 -0.00372387 0.162501 0.0976918 0.00298727 0.15325 0.0821775 0.00880419 
-0.0620267 0.229075 -0.0316931 -0.0321961 0.247879 -0.0350848 -0.000533563 0.261242 -0.0375564 
0.0357093 0.261003 -0.0377279 0.0697065 0.254854 -0.0365681 0.0990717 0.236518 -0.0326624 
0.123172 0.215653 -0.0278425 0.138205 0.19043 -0.021448 0.148068 0.166111 -0.0149576 
0.150435 0.143102 -0.00832804 0.149532 0.122454 -0.0021633 0.144616 0.104701 0.00343104 
0.138267 0.089357 0.00838235 -0.0450871 0.211498 -0.0271358 -0.0208338 0.226414 -0.0292778 
0.00475012 0.23707 -0.0307299 0.0336609 0.237074 -0.0304572 0.0609861 0.232385 -0.0292139 
0.0850408 0.218019 -0.0259689 0.105203 0.201312 -0.0220237 0.118662 0.180573 -0.0168725 
0.12803 0.160167 -0.0115923 0.131465 0.140242 -0.00612514 0.132036 0.122016 -0.000966422 
0.129093 0.105875 0.00381382 0.124669 0.0916798 0.0081068 -0.0291026 0.193076 -0.0229173 
-0.0101207 0.204238 -0.0239008 0.00974069 0.212267 -0.0244069 0.0318009 0.212467 -0.02372 
0.0528588 0.209158 -0.0223893 0.0718494 0.198614 -0.0197309 0.0882015 0.185965 -0.0165743 
0.10001 0.169692 -0.0125595 0.10876 0.153228 -0.00839672 0.113075 0.136486 -0.00401915 
0.114953 0.120793 0.000189132 0.113839 0.106386 0.00418966 0.111228 0.0934507 0.00784786 
-0.0189307 0.175372 -0.021117 -0.00333678 0.184193 -0.0214085 0.0129142 0.190562 -0.0213355 
0.0308078 0.190802 -0.0203518 0.0479742 0.188281 -0.018889 0.0636407 0.180067 -0.0164384 
0.0773243 0.170057 -0.0136088 0.0875928 0.156955 -0.0101265 0.0954486 0.143484 -0.00651667 
0.0998061 0.129479 -0.00272199 0.102103 0.116136 0.000953292 0.10187 0.103604 0.00448206 
0.100248 0.0921702 0.00773617 -0.00913789 0.157714 -0.0194744 0.00319087 0.164288 -0.0191043 
0.0159691 0.16906 -0.0184762 0.0298711 0.169329 -0.0172032 0.043301 0.167557 -0.0156055 
0.055757 0.161576 -0.013338 0.0668466 0.154113 -0.0108054 0.0755827 0.144097 -0.00781604 
0.0825263 0.133557 -0.00472242 0.0868706 0.12226 -0.00147759 0.0895283 0.111254 0.00169193 
0.090116 0.100607 0.00476902 0.0894297 0.0906907 0.00763408 -0.00296954 0.142754 -0.0192591 
0.00729767 0.148038 -0.0184609 0.0179169 0.151894 -0.0174569 0.0294161 0.152176 -0.0159382 
0.0405643 0.150841 -0.0141697 0.0509884 0.146168 -0.0118856 0.0603577 0.140265 -0.00939923 
0.06791 0.132247 -0.00656434 0.0740244 0.12371 -0.00365237 0.0780537 0.114422 -0.000628635 
0.0806582 0.105257 0.00232391 0.0815142 0.0962425 0.00518911 0.0812221 0.0877265 0.0078576 
-0.249488 -0.0715581 -0.0026118 -0.161716 -0.0767918 -0.00879858 -0.0626742 -0.0801695 -0.0156834 
0.0645465 -0.0789072 -0.0243136 0.175908 -0.0754222 -0.0296641 0.254558 -0.0673525 -0.0282502 
0.307608 -0.0589608 -0.0236939 0.316567 -0.0500143 -0.0137257 0.312513 -0.0420185 -0.00378447 
0.28959 -0.0354014 0.00611758 0.264844 -0.0298308 0.0147755 0.23786 -0.0255443 0.0219065 
0.213006 -0.0220196 0.0278829 -0.251249 0.0353443 -0.00615487 -0.162943 0.0470202 -0.0139812 
-0.0630507 0.0551586 -0.0222498 0.0658044 0.0544534 -0.0316239 0.1787 0.0507414 -0.037155 
0.258679 0.040828 -0.03476 0.312562 0.0313256 -0.0291465 0.321501 0.0225312 -0.0179899 
0.317151 0.015222 -0.00708831 0.293532 0.0100666 0.00344342 0.268117 0.00600591 0.0125608 
0.240495 0.00328877 0.0199426 0.215116 0.00119525 0.0260882 -0.226679 0.119789 -0.00898905 
-0.145953 0.142814 -0.0169841 -0.0550616 0.158858 -0.025014 0.0612466 0.157449 -0.0331314 
0.16395 0.149375 -0.0376184 0.238593 0.127554 -0.0346179 0.289999 0.105692 -0.0287673 
0.301385 0.0837596 -0.018008 0.300011 0.0648008 -0.0075204 0.280135 0.0501537 0.00257329 
0.257902 0.0381771 0.0113348 0.232776 0.029478 0.0184613 0.209349 0.0225227 0.0244112 
-0.194486 0.197733 -0.011618 -0.123692 0.230497 -0.019356 -0.0446508 0.253401 -0.0266778 
0.0550053 0.251654 -0.0329591 0.144122 0.240039 -0.0360475 0.2115 0.208069 -0.0325503 
0.259471 0.17545 -0.0266999 0.274017 0.141712 -0.016797 0.276565 0.112162 -0.00712119 
0.261718 0.088683 0.00222537 0.243783 0.0692872 0.0103949 0.222059 0.0549018 0.0171198 
0.201301 0.0433038 0.0227683 -0.15816 0.229778 -0.0115328 -0.0985607 0.262624 -0.0178554 
-0.0326483 0.285745 -0.0236331 0.0490483 0.284556 -0.0280488 0.122931 0.2733 -0.0299514 
0.180699 0.241281 -0.0266706 0.223191 0.20778 -0.0215385 0.239376 0.171727 -0.013218 
0.245079 0.139483 -0.00499848 0.235582 0.11276 0.00307471 0.222576 0.0902829 0.0102285 
0.205264 0.0730172 0.0162538 0.188128 0.0588833 0.0213759 -0.120903 0.251497 -0.0108369 
-0.0727843 0.282251 -0.0154834 -0.0202876 0.304095 -0.0195291 0.0431552 0.303665 -0.0220724 
0.101434 0.293645 -0.0228371 0.149062 0.263849 -0.0199333 0.185617 0.231689 -0.015681 
0.203099 0.195457 -0.00910624 0.211783 0.162295 -0.00248797 0.20771 0.133584 0.00419344 
0.199775 0.109003 0.0102361 0.187101 0.0894882 0.0154949 0.173802 0.0732925 0.0200399 
-0.0923346 0.245085 -0.00947998 -0.0531376 0.270882 -0.0127062 -0.0107798 0.289316 -0.0154144 
0.0394803 0.289343 -0.0168279 0.0861121 0.281292 -0.0169541 0.125261 0.256583 -0.0144254 
0.156188 0.229237 -0.0108917 0.172955 0.197352 -0.00562693 0.182568 0.167515 -0.0002585 
0.181805 0.140648 0.00526024 0.177348 0.117183 0.0103391 0.168356 0.0978936 0.0148782 
0.158298 0.0816041 0.0188638 -0.0652145 0.233986 -0.00801289 -0.0345125 0.254347 -0.00986135 
-0.00174757 0.269015 -0.0112981 0.0361749 0.269449 -0.0117054 0.0718193 0.263489 -0.0112764 
0.102765 0.244343 -0.00912253 0.128116 0.222392 -0.00628044 0.143834 0.195609 -0.00225303 
0.154033 0.169804 0.00192413 0.156229 0.145419 0.00631838 0.154984 0.123607 0.010458 
0.149514 0.104955 0.0142851 0.142598 0.0888995 0.0177143 -0.0471304 0.215169 -0.00743007 
-0.0221837 0.231302 -0.00841928 0.00424933 0.242976 -0.00908614 0.0343984 0.243502 -0.00894715 
0.0629379 0.23898 -0.00820826 0.0881576 0.224048 -0.00623204 0.109259 0.206557 -0.0037495 
0.123266 0.18466 -0.00039495 0.132928 0.163128 0.00309988 0.136287 0.142126 0.0067981 
0.136638 0.122973 0.0103286 0.133298 0.106089 0.0136531 0.128447 0.0912942 0.0166715 
-0.0300732 0.195476 -0.00694773 -0.0105704 0.207516 -0.0071366 0.0099013 0.216284 -0.00709064 
0.0327956 0.216867 -0.00645762 0.0546714 0.213709 -0.00543669 0.0744468 0.202836 -0.00361568 
0.0914479 0.1897 -0.00145495 0.103671 0.172665 0.00129087 0.112667 0.155434 0.00416121 
0.116985 0.137918 0.0072121 0.11875 0.121537 0.0101709 0.117381 0.10655 0.0130167 
0.114472 0.0931319 0.015641 -0.0192459 0.176851 -0.00744469 -0.00323556 0.186362 -0.00715277 
0.0134919 0.193316 -0.00667676 0.0320122 0.193878 -0.00574056 0.0497919 0.191512 -0.00451836 
0.0660441 0.183109 -0.00270632 0.0802161 0.172789 -0.000642982 0.0908052 0.159168 0.00185315 
0.0988562 0.145162 0.00444653 0.103227 0.130599 0.00718091 0.105442 0.11675 0.0098442 
0.105013 0.103779 0.0124203 0.103149 0.091971 0.0148088 -0.00882491 0.158295 -0.00800551 
0.00382029 0.165378 -0.00725364 0.016948 0.170591 -0.00636604 0.0312822 0.171126 -0.00513909 
0.0451332 0.169515 -0.0037209 0.0579876 0.163478 -0.00190829 0.0694133 0.155874 7.22907e-05 
0.0783788 0.145572 0.00234216 0.0854661 0.134722 0.00468124 0.0898302 0.123077 0.00712068 
0.0924335 0.111745 0.00950647 0.0928761 0.100797 0.0118264 0.091999 0.0906145 0.0139895 
-0.00225209 0.142878 -0.00910766 0.00828077 0.148584 -0.00805191 0.0191866 0.152812 -0.00688381 
0.0310247 0.153341 -0.00543482 0.0425007 0.152177 -0.00383793 0.0532297 0.147518 -0.00193601 
0.062855 0.141567 9.17616e-05 0.0705797 0.133392 0.00233625 0.0767981 0.124675 0.00462688 
0.0808321 0.115172 0.00698439 0.0833778 0.1058 0.00928339 0.0840966 0.0965895 0.0115106 
0.0836223 0.0878942 0.0135815 -0.245802 -0.0734097 0.0652763 -0.163725 -0.0798937 0.0677004 
-0.0695012 -0.0844475 0.0664911 0.0550894 -0.0841757 0.0561981 0.16599 -0.0811819 0.0465416 
0.248656 -0.0725739 0.0381978 0.305554 -0.0634645 0.0326873 0.318072 -0.0534917 0.0320565 
0.316331 -0.0446467 0.032542 0.293915 -0.0374369 0.0346461 0.269236 -0.0314393 0.0368654 
0.241778 -0.0269292 0.0392259 0.216452 -0.0232678 0.0414805 -0.249189 0.0291971 0.0621886 
-0.166462 0.0392747 0.0630696 -0.0710583 0.0464746 0.0605643 0.0560361 0.0464802 0.049593 
0.169257 0.0438099 0.0398221 0.253864 0.0356209 0.0325269 0.31192 0.0275516 0.0281032 
0.324249 0.0196887 0.0286251 0.321978 0.013061 0.0300151 0.298537 0.00822471 0.032664 
0.272927 0.00437217 0.0352574 0.244655 0.00172699 0.0377827 0.218678 -0.000339257 0.0401212 
-0.226224 0.112175 0.0542021 -0.149946 0.134054 0.0539413 -0.0624566 0.149797 0.0510808 
0.0530633 0.150198 0.0417211 0.156613 0.143976 0.0336238 0.235475 0.124094 0.0281303 
0.290577 0.10363 0.0250753 0.304759 0.0821613 0.0262201 0.305046 0.0634587 0.0280355 
0.285184 0.0487661 0.0308231 0.262659 0.0367193 0.0334921 0.236865 0.0279197 0.0360153 
0.212831 0.0208693 0.0383254 -0.195631 0.18947 0.0447975 -0.127858 0.221773 0.0435111 
-0.0509141 0.245129 0.0405679 0.048956 0.246118 0.0334825 0.139364 0.236956 0.0275764 
0.210255 0.206859 0.0241026 0.261212 0.175383 0.0224979 0.27784 0.141534 0.0241122 
0.281579 0.11174 0.0262142 0.266629 0.0878251 0.0290232 0.24835 0.0680636 0.0316813 
0.225986 0.0533993 0.0341541 0.204648 0.04158 0.0364032 -0.159551 0.222793 0.0366985 
-0.101918 0.255771 0.035481 -0.0372684 0.279715 0.033209 0.0449229 0.281077 0.0283004 
0.120007 0.271998 0.0242939 0.180432 0.241383 0.0221477 0.225175 0.208629 0.0213708 
0.242908 0.17219 0.0229518 0.249499 0.139475 0.024927 0.239933 0.11216 0.0274739 
0.226657 0.0891945 0.0299085 0.208825 0.0715681 0.0322055 0.191205 0.0571526 0.034308 
-0.122236 0.246223 0.0288933 -0.0751114 0.277681 0.027991 -0.0231494 0.300633 0.0265597 
0.0409065 0.30232 0.0238061 0.100176 0.294004 0.0216335 0.149575 0.265054 0.0206593 
0.187636 0.23321 0.02057 0.206173 0.196384 0.0220045 0.215481 0.162586 0.02376 
0.211406 0.133181 0.0259809 0.203301 0.108027 0.0281444 0.190251 0.0880919 0.0302372 
0.176579 0.0715692 0.0321739 -0.0932031 0.240978 0.0233371 -0.0545687 0.267532 0.0229102 
-0.0124642 0.286957 0.0221737 0.0383159 0.288562 0.0206635 0.0857002 0.281756 0.0195436 
0.126081 0.257604 0.0192285 0.158067 0.230422 0.0195187 0.175595 0.198021 0.0208516 
0.185673 0.167632 0.02244 0.184946 0.140158 0.0243989 0.180387 0.116185 0.0263332 
0.171125 0.0965075 0.0282373 0.160783 0.0799122 0.0300175 -0.0655505 0.230955 0.0181558 
-0.0350699 0.252039 0.0182309 -0.00235131 0.267515 0.0181649 0.0359629 0.268969 0.0177462 
0.0721165 0.263799 0.0175487 0.103814 0.244967 0.0178072 0.129825 0.223072 0.0184258 
0.146044 0.1959 0.0196643 0.156567 0.169667 0.0210944 0.158831 0.144794 0.0228021 
0.157547 0.122563 0.0245143 0.151908 0.103572 0.026232 0.144793 0.0872429 0.0278574 
-0.0470457 0.212516 0.0141864 -0.0222031 0.229236 0.0146106 0.00424026 0.241536 0.0149544 
0.034686 0.242788 0.015097 0.0635951 0.238831 0.0153873 0.0893349 0.224132 0.0159822 
0.110897 0.206693 0.01682 0.125262 0.184539 0.0180765 0.135161 0.162711 0.0194733 
0.138581 0.141354 0.0210736 0.13891 0.121887 0.0226785 0.135445 0.104739 0.0242891 
0.130435 0.089725 0.0258177 -0.0295804 0.193121 0.0103546 -0.0100899 0.205602 0.0111106 
0.0104317 0.214815 0.0118345 0.0335314 0.215859 0.0124782 0.055649 0.213067 0.0132069 
0.0757409 0.202364 0.0141112 0.0930261 0.189289 0.015156 0.105477 0.172129 0.0164431 
0.11463 0.154733 0.0178208 0.118998 0.136997 0.01933 0.120752 0.120411 0.0208407 
0.119295 0.105236 0.0223532 0.116264 0.091656 0.0237916 -0.0184774 0.174595 0.00714624 
-0.00245037 0.184458 0.00812469 0.0143344 0.191764 0.00908916 0.0330135 0.19268 0.0100187 
0.0509739 0.190604 0.0110091 0.0674518 0.182358 0.0121251 0.0818256 0.172119 0.0133366 
0.0925754 0.158448 0.0147124 0.100733 0.144361 0.0161465 0.105133 0.129668 0.0176654 
0.107328 0.115694 0.0191714 0.106815 0.1026 0.0206617 0.104834 0.0906822 0.0220703 
-0.00778937 0.156125 0.00397849 0.00489744 0.163476 0.00517226 0.0180878 0.168953 0.00636819 
0.0325371 0.169746 0.00756953 0.0465121 0.168356 0.00881011 0.0595088 0.162466 0.0101316 
0.0710602 0.154963 0.011507 0.0801224 0.144685 0.0129753 0.0872701 0.133832 0.0144709 
0.0916416 0.122146 0.0160059 0.0942126 0.110765 0.0175131 0.0945738 0.0997602 0.0189863 
0.0935834 0.0895189 0.0203689 -0.00102283 0.140826 0.00129985 0.00956314 0.146763 0.00265921 
0.0205347 0.151218 0.00402895 0.0324703 0.151973 0.00542464 0.044047 0.15101 0.00685271 
0.0548833 0.146502 0.00834754 0.0646004 0.140672 0.00987906 0.07239 0.132564 0.0114738 
0.0786418 0.123893 0.0130776 0.0826638 0.114407 0.0146948 0.0851607 0.105043 0.0162682 
0.085786 0.0958275 0.0177878 0.0851856 0.0871191 0.0191995 -0.237245 -0.0741842 0.125475 
-0.161919 -0.0815987 0.136066 -0.0738985 -0.0870531 0.140786 0.0458558 -0.0876076 0.130829 
0.154122 -0.085053 0.118736 0.238695 -0.0760856 0.102237 0.297962 -0.0664827 0.0878342 
0.313646 -0.055785 0.0770434 0.314334 -0.0463545 0.0683913 0.293277 -0.0387613 0.0628403 
0.269553 -0.0325074 0.058744 0.242555 -0.0278972 0.0564328 0.217543 -0.0242031 0.0550558 
-0.241952 0.0225683 0.123331 -0.165889 0.031109 0.132745 -0.0764209 0.0374016 0.136483 
0.046559 0.0380743 0.126029 0.157795 0.0364174 0.113884 0.244808 0.0299555 0.0982524 
0.305492 0.0233679 0.0847243 0.320829 0.0165638 0.0748194 0.320778 0.0107348 0.0668402 
0.298414 0.00632008 0.0616535 0.273536 0.00274893 0.0577784 0.245574 0.000213109 0.0555127 
0.219803 -0.00181129 0.0541099 -0.220824 0.102627 0.111447 -0.150066 0.12312 0.118928 
-0.0673882 0.138338 0.121749 0.0450871 0.14037 0.112919 0.147299 0.135955 0.102746 
0.228344 0.118241 0.0898019 0.285731 0.0995025 0.0785413 0.302374 0.0789997 0.0701802 
0.304455 0.0609994 0.0633916 0.28542 0.0466278 0.0588831 0.263446 0.0347923 0.0554858 
0.237864 0.0260693 0.0534521 0.213966 0.0190431 0.0521728 -0.192218 0.177853 0.0967434 
-0.128513 0.209139 0.102071 -0.0550105 0.232467 0.103994 0.0429855 0.235896 0.0974035 
0.132702 0.229143 0.0897882 0.205344 0.201386 0.0800586 0.25807 0.171666 0.0714687 
0.276497 0.138566 0.0648418 0.281541 0.109288 0.0593936 0.267179 0.0855537 0.0556543 
0.249282 0.0659056 0.0528092 0.227048 0.0512729 0.0510614 0.205785 0.0394523 0.0499487 
-0.15714 0.211846 0.0816126 -0.102394 0.244277 0.0856539 -0.040158 0.268482 0.0872526 
0.0408023 0.272121 0.0827445 0.115462 0.265218 0.0774027 0.177128 0.236574 0.0703409 
0.223131 0.20527 0.0639989 0.242157 0.169389 0.0588966 0.249698 0.137044 0.0546617 
0.240587 0.109828 0.0516847 0.227607 0.0869204 0.0494146 0.209877 0.0692991 0.0480122 
0.192311 0.054868 0.0471285 -0.120607 0.236561 0.0663856 -0.0752477 0.267966 0.0693354 
-0.0247487 0.291422 0.0707393 0.0386007 0.295003 0.0682783 0.0976276 0.288444 0.0651459 
0.147739 0.26097 0.0606291 0.186554 0.230198 0.0564398 0.205912 0.193744 0.0528147 
0.215846 0.16018 0.0497647 0.212116 0.130807 0.0475484 0.204241 0.105663 0.0458585 
0.191277 0.0857104 0.0448149 0.177647 0.0691601 0.044174 -0.0918035 0.232801 0.0545284 
-0.0543477 0.259454 0.0569669 -0.0132204 0.279354 0.0583388 0.0370861 0.282373 0.0570444 
0.0842942 0.276881 0.0552173 0.125112 0.253832 0.0522915 0.157577 0.227463 0.049515 
0.175659 0.195374 0.0469957 0.18617 0.165185 0.0448645 0.185706 0.13775 0.0432961 
0.181324 0.113793 0.042117 0.172133 0.0941066 0.0414156 0.16182 0.0774915 0.0410199 
-0.0642888 0.224295 0.043233 -0.0344888 0.245575 0.0452567 -0.00233897 0.261452 0.0466238 
0.035686 0.263825 0.0463493 0.0717109 0.259519 0.0456767 0.103611 0.241438 0.044183 
0.129867 0.220117 0.042696 0.146404 0.193217 0.0412204 0.15719 0.167168 0.0399638 
0.159639 0.142353 0.0390246 0.158481 0.120155 0.0383446 0.152898 0.101167 0.0379828 
0.145801 0.0848293 0.0378325 -0.045776 0.206833 0.0349747 -0.0213888 0.223737 0.0368222 
0.00467151 0.236356 0.0382108 0.0349151 0.238263 0.0384517 0.0637251 0.23493 0.038389 
0.0895783 0.220792 0.0377001 0.111287 0.2038 0.0369773 0.125857 0.181893 0.0361961 
0.135928 0.160244 0.0355455 0.139475 0.138969 0.0350842 0.139887 0.119556 0.0347958 
0.136453 0.102431 0.0347196 0.131442 0.087424 0.0347836 -0.0282862 0.188354 0.0270615 
-0.0090569 0.200996 0.02876 0.0112421 0.210443 0.0301729 0.0342156 0.211903 0.030872 
0.0562616 0.209519 0.0313574 0.0763945 0.199208 0.031402 0.093744 0.186464 0.0313837 
0.1063 0.169528 0.0312571 0.115543 0.152308 0.031182 0.119982 0.134676 0.0311815 
0.121776 0.118167 0.0312725 0.120325 0.103036 0.0314757 0.117272 0.0894797 0.0317505 
-0.0171203 0.170401 0.0212436 -0.00126656 0.180408 0.0229046 0.0153695 0.187908 0.0243628 
0.0339617 0.189143 0.0253137 0.0518699 0.187384 0.0261042 0.0683672 0.179452 0.0265636 
0.0827755 0.169488 0.0269606 0.0935857 0.156025 0.0272501 0.101793 0.142108 0.0275558 
0.106226 0.127532 0.0278849 0.10843 0.11365 0.0282569 0.107897 0.100617 0.0286815 
0.10587 0.0887389 0.0291287 -0.00636678 0.152482 0.0155625 0.00622758 0.15996 0.0171932 