# vtk DataFile Version 2.0
vtk output
ASCII
DATASET RECTILINEAR_GRID
DIMENSIONS 13 13 13
X_COORDINATES 13 float
7.5 7.70833 7.91667 8.125 8.33333 8.54167 8.75 8.95833 9.16667 
9.375 9.58333 9.79167 10 
Y_COORDINATES 13 float
-7.5 -7.29167 -7.08333 -6.875 -6.66667 -6.45833 -6.25 -6.04167 -5.83333 
-5.625 -5.41667 -5.20833 -5 
Z_COORDINATES 13 float
-2.5 -2.29167 -2.08333 -1.875 -1.66667 -1.45833 -1.25 -1.04167 -0.833333 
-0.625 -0.416667 -0.208333 0 
POINT_DATA 2197
VECTORS grad float
0.0625863 0.187832 -0.00773525 0.0344697 0.18397 -0.0102463 0.00794521 0.17905 -0.0131478 
-0.0145674 0.171083 -0.0166872 -0.0360512 0.162334 -0.0203902 -0.053656 0.15137 -0.0233433 
-0.0705038 0.139973 -0.02615 -0.0829966 0.127842 -0.0269602 -0.0948817 0.115609 -0.0274918 
-0.102038 0.10413 -0.0259162 -0.108774 0.0927178 -0.0241533 -0.111059 0.0830347 -0.0211956 
-0.113154 0.0734251 -0.0181869 0.0574062 0.214563 -0.0226266 0.0273884 0.207131 -0.0237089 
-0.00102827 0.198798 -0.0251431 -0.0251538 0.187324 -0.0272787 -0.0481789 0.175043 -0.029594 
-0.0666388 0.160557 -0.0313246 -0.0842079 0.145641 -0.0329412 -0.0965699 0.130566 -0.0327626 
-0.108205 0.115468 -0.0323336 -0.114468 0.102077 -0.0300019 -0.120253 0.088838 -0.0275011 
-0.121927 0.0782457 -0.0239965 -0.123425 0.067766 -0.0204492 0.0501289 0.240849 -0.0376657 
0.0183193 0.230155 -0.0370354 -0.0119649 0.218695 -0.0367401 -0.0377704 0.203736 -0.0372877 
-0.0624274 0.187881 -0.0380514 -0.081698 0.169642 -0.0384775 -0.0999175 0.150938 -0.0388378 
-0.111896 0.132695 -0.037688 -0.123004 0.114517 -0.0363276 -0.12804 0.0991381 -0.0333274 
-0.132536 0.0840075 -0.0301815 -0.13343 0.0725428 -0.0262365 -0.134171 0.0612341 -0.0222574 
0.0376081 0.266021 -0.0530743 0.00428113 0.25284 -0.0500217 -0.0278097 0.238964 -0.0473413 
-0.0554627 0.220581 -0.0458409 -0.0819777 0.201042 -0.0446429 -0.101948 0.17847 -0.0435593 
-0.120641 0.155307 -0.0424979 -0.131604 0.133342 -0.0404209 -0.141488 0.111544 -0.0382022 
-0.144465 0.0939837 -0.0347526 -0.146828 0.0768006 -0.0311936 -0.146522 0.0645554 -0.0270739 
-0.146102 0.0525203 -0.0229304 0.0240408 0.288171 -0.0688861 -0.0110035 0.273349 -0.0630353 
-0.0452477 0.257871 -0.0576469 -0.0752678 0.236301 -0.0539081 -0.104205 0.213169 -0.0505922 
-0.125017 0.186018 -0.0479356 -0.144243 0.158082 -0.0454077 -0.153787 0.132255 -0.0424297 
-0.16198 0.106722 -0.039389 -0.162347 0.0870778 -0.0355686 -0.162018 0.0679574 -0.0316789 
-0.16025 0.0551198 -0.0274742 -0.158421 0.0425496 -0.0232561 0.00831528 0.304087 -0.0855297 
-0.0288588 0.289368 -0.0761055 -0.0659717 0.273967 -0.0673429 -0.0994305 0.249702 -0.060973 
-0.131952 0.223165 -0.0552167 -0.1539 0.190925 -0.0508569 -0.173784 0.157573 -0.0467697 
-0.181077 0.127595 -0.0429451 -0.186614 0.0980886 -0.0391571 -0.183233 0.0765594 -0.035128 
-0.17906 0.0557394 -0.0310776 -0.17529 0.0426976 -0.0269727 -0.171538 0.0299867 -0.0228656 
-0.00619997 0.310277 -0.102222 -0.0461188 0.296506 -0.0889328 -0.0870298 0.282062 -0.076597 
-0.125218 0.255678 -0.0675384 -0.162709 0.226232 -0.0593201 -0.186136 0.189404 -0.053291 
-0.206818 0.151136 -0.047689 -0.211142 0.117767 -0.0430886 -0.213183 0.0850822 -0.038628 
-0.20527 0.0624171 -0.0344631 -0.196473 0.0406428 -0.0303244 -0.19039 0.0279429 -0.0263732 
-0.184422 0.0156291 -0.02243 -0.0186308 0.299718 -0.118998 -0.0623534 0.288347 -0.101342 
-0.108663 0.276378 -0.0850898 -0.153805 0.248865 -0.0732432 -0.198647 0.217366 -0.0625262 
-0.224145 0.176812 -0.0548859 -0.245869 0.134491 -0.0478459 -0.245985 0.0990385 -0.0425918 
-0.243085 0.0645441 -0.0375868 -0.22929 0.0420338 -0.0334115 -0.214527 0.0205886 -0.0293099 
-0.205592 0.00917148 -0.025605 -0.196904 -0.00181898 -0.0219168 -0.0289317 0.26886 -0.133665 
-0.0768368 0.258662 -0.111879 -0.129237 0.248013 -0.0920118 -0.182369 0.220519 -0.0776899 
-0.23569 0.188707 -0.0647898 -0.263229 0.147657 -0.0558151 -0.285739 0.104805 -0.0476063 
-0.280863 0.0701772 -0.0419211 -0.272166 0.0366968 -0.0365879 -0.25204 0.0160823 -0.0325366 
-0.230898 -0.00338865 -0.0285991 -0.219017 -0.0125889 -0.0251831 -0.207529 -0.0213522 -0.0217892 
-0.0361444 0.208568 -0.145275 -0.0887806 0.197764 -0.1197 -0.148273 0.186759 -0.0966562 
-0.210901 0.160951 -0.0803124 -0.274334 0.131348 -0.0656867 -0.30387 0.0944869 -0.055779 
-0.326793 0.0562099 -0.0467918 -0.315792 0.0266242 -0.0409983 -0.300057 -0.00174887 -0.0356504 
-0.272949 -0.0179429 -0.0319177 -0.24483 -0.0330544 -0.0283287 -0.229866 -0.0386833 -0.0252635 
-0.215461 -0.0439086 -0.0222206 -0.047243 0.12947 -0.150606 -0.10296 0.11536 -0.122408 
-0.167173 0.101281 -0.0972426 -0.236065 0.0782586 -0.0797855 -0.306157 0.0529426 -0.0643048 
-0.336274 0.0244015 -0.0542322 -0.358591 -0.00476866 -0.0452149 -0.342251 -0.0261126 -0.0398678 
-0.320516 -0.0463645 -0.0350328 -0.287575 -0.0565149 -0.0319065 -0.253638 -0.0657673 -0.028932 
-0.236077 -0.0669959 -0.0262722 -0.219212 -0.0678831 -0.0236258 -0.063111 0.0272904 -0.148229 
-0.119883 0.00656288 -0.118839 -0.185907 -0.0139257 -0.0928489 -0.257096 -0.0328145 -0.0753933 
-0.329609 -0.051293 -0.0601261 -0.358568 -0.0664438 -0.0508315 -0.379028 -0.0809452 -0.0427023 
-0.358314 -0.0901204 -0.0384824 -0.331854 -0.0985525 -0.034808 -0.294489 -0.100667 -0.0326409 
-0.256155 -0.10222 -0.0306077 -0.236594 -0.0980312 -0.0284203 -0.217832 -0.093598 -0.0262263 
-0.0872955 -0.0675367 -0.136463 -0.142272 -0.0939605 -0.107572 -0.205788 -0.119969 -0.0822292 
-0.273173 -0.135317 -0.0661255 -0.34155 -0.147931 -0.052391 -0.367168 -0.151416 -0.0451483 
-0.384444 -0.15312 -0.0391724 -0.361194 -0.151406 -0.037051 -0.33229 -0.149215 -0.0354675 
-0.29245 -0.143772 -0.0347472 -0.251639 -0.13804 -0.0341036 -0.230796 -0.128405 -0.0324187 
-0.210802 -0.118605 -0.0306894 0.0604566 0.17232 -0.00706848 0.031998 0.169711 -0.0104486 
0.00511438 0.166098 -0.0137701 -0.017396 0.15944 -0.0168768 -0.038785 0.152001 -0.0199284 
-0.0557976 0.14225 -0.0220673 -0.0719561 0.132048 -0.0240281 -0.0835117 0.120966 -0.0244284 
-0.0944249 0.109762 -0.024611 -0.100778 0.0991412 -0.0232359 -0.106726 0.0885722 -0.0217223 
-0.108696 0.0795482 -0.0192699 -0.110497 0.0705899 -0.0167776 0.0566553 0.198595 -0.0230684 
0.0263589 0.192808 -0.0251289 -0.00238889 0.186147 -0.0270729 -0.0265556 0.176249 -0.028763 
-0.0495476 0.165522 -0.030388 -0.0675151 0.152393 -0.0311799 -0.084502 0.138796 -0.0318092 
-0.0960471 0.124786 -0.0310557 -0.106833 0.110719 -0.0301092 -0.112409 0.0981019 -0.0278361 
-0.117523 0.0856139 -0.0254451 -0.118939 0.0755545 -0.0223476 -0.120198 0.0655984 -0.0192201 
0.0510516 0.224298 -0.0397129 0.0189863 0.215669 -0.0402403 -0.0116448 0.206261 -0.0406122 
-0.0375764 0.19316 -0.0407213 -0.0623029 0.179111 -0.0407631 -0.0812211 0.162383 -0.0400837 
-0.099006 0.145132 -0.0392637 -0.110324 0.127978 -0.0372971 -0.120739 0.110837 -0.0351705 
-0.125228 0.0961494 -0.0320081 -0.12919 0.08168 -0.0287537 -0.12989 0.0706232 -0.0250574 
-0.130451 0.0597117 -0.0213423 0.0409416 0.24857 -0.0579687 0.00728027 0.237936 -0.0564295 
-0.0252822 0.22654 -0.0547429 -0.0532502 0.210323 -0.0528601 -0.08004 0.19287 -0.0509269 
-0.0998989 0.171989 -0.048466 -0.118405 0.150438 -0.045902 -0.128954 0.129599 -0.042574 
-0.138393 0.108859 -0.0391393 -0.141017 0.0919141 -0.0351094 -0.143034 0.0753071 -0.0310265 
-0.142613 0.063348 -0.0268474 -0.142089 0.0515867 -0.0226641 0.0301639 0.26983 -0.0773435 
-0.00536527 0.257985 -0.0735564 -0.0402769 0.245353 -0.069659 -0.0708476 0.226226 -0.065603 
-0.100305 0.205433 -0.0615062 -0.121286 0.180151 -0.0570561 -0.140612 0.153993 -0.0525371 
-0.150028 0.129335 -0.0477129 -0.158061 0.104886 -0.0428462 -0.158293 0.0857886 -0.0379189 
-0.157831 0.0671669 -0.0329861 -0.156034 0.054506 -0.0283539 -0.154181 0.0420987 -0.0237345 
0.0180087 0.284875 -0.0990261 -0.0199484 0.27346 -0.0926169 -0.0580708 0.261144 -0.0861949 
-0.0924121 0.239529 -0.0795918 -0.125784 0.215529 -0.0729422 -0.14826 0.185338 -0.0660751 
-0.16861 0.153938 -0.0591655 -0.176142 0.125185 -0.0525675 -0.181885 0.0968007 -0.0460129 
-0.178639 0.0757646 -0.0401266 -0.174593 0.0553816 -0.0342997 -0.170894 0.0424324 -0.0292759 
-0.16721 0.0297994 -0.0242863 0.00729542 0.29085 -0.121702 -0.033792 0.280509 -0.112794 
-0.0761195 0.269191 -0.104016 -0.115518 0.245544 -0.0947766 -0.154166 0.218735 -0.0854184 
-0.178491 0.184081 -0.0758175 -0.20002 0.147897 -0.0661693 -0.204989 0.115765 -0.0575889 
-0.207646 0.0841992 -0.0491575 -0.200158 0.0619531 -0.042268 -0.191768 0.0405354 -0.0355155 
-0.185858 0.0278494 -0.0301206 -0.180054 0.0155349 -0.0247834 -0.000934588 0.281206 -0.146088 
-0.0463618 0.273049 -0.134893 -0.0946067 0.263901 -0.124052 -0.141279 0.239007 -0.112021 
-0.187548 0.210075 -0.099686 -0.21433 0.171728 -0.0868059 -0.23731 0.131545 -0.0738195 
-0.238544 0.09727 -0.0628978 -0.236744 0.0638198 -0.0522641 -0.2237 0.0416188 -0.0442951 
-0.209657 0.0204177 -0.036563 -0.201001 0.00894497 -0.030832 -0.192575 -0.00211377 -0.0251861 
-0.00740583 0.253123 -0.168776 -0.0575777 0.245696 -0.155919 -0.112411 0.237375 -0.14369 
-0.167294 0.212135 -0.129092 -0.222189 0.182557 -0.113887 -0.251365 0.143456 -0.097631 
-0.275523 0.102497 -0.0811696 -0.272256 0.0687851 -0.0679544 -0.265163 0.0360838 -0.0551922 
-0.246094 0.0155816 -0.0462739 -0.22596 -0.00383635 -0.0376973 -0.214445 -0.013173 -0.0317075 
-0.203296 -0.0220806 -0.0258278 -0.0113268 0.198305 -0.189002 -0.0668304 0.189498 -0.175386 
-0.129225 0.180055 -0.162751 -0.193676 0.155776 -0.145911 -0.258655 0.127695 -0.127992 
-0.290134 0.0921008 -0.108219 -0.315076 0.0550416 -0.0880846 -0.306197 0.0258148 -0.0726453 
-0.292599 -0.0023191 -0.0578612 -0.266823 -0.0187247 -0.0481825 -0.239966 -0.0340878 -0.0389576 
-0.225424 -0.0399504 -0.032821 -0.211405 -0.0454087 -0.0268159 -0.0200936 0.126813 -0.200617 
-0.0792281 0.113853 -0.186548 -0.146797 0.100553 -0.173783 -0.217656 0.0780594 -0.155629 
-0.289359 0.0532089 -0.136092 -0.321688 0.0247942 -0.114257 -0.346334 -0.00431591 -0.0919741 
-0.332456 -0.0261679 -0.075462 -0.313202 -0.0470071 -0.059755 -0.281692 -0.0578167 -0.049911 
-0.249093 -0.0677347 -0.0405882 -0.231932 -0.0692979 -0.0344934 -0.215427 -0.0705057 -0.0285359 
-0.0348075 0.0348569 -0.201664 -0.0954855 0.0143409 -0.187519 -0.165301 -0.00617235 -0.17496 
-0.238688 -0.0258707 -0.156631 -0.31299 -0.04536 -0.136823 -0.344387 -0.0620894 -0.114711 
-0.367411 -0.0782803 -0.0921508 -0.349287 -0.0892115 -0.0759783 -0.32542 -0.0994088 -0.0606972 
-0.289369 -0.102782 -0.0514186 -0.252234 -0.105549 -0.0426735 -0.232954 -0.1018 -0.0368516 
-0.214433 -0.0977738 -0.031154 -0.0590038 -0.049584 -0.189467 -0.118331 -0.076748 -0.175156 
-0.186151 -0.103631 -0.162616 -0.256269 -0.121174 -0.145604 -0.326976 -0.136322 -0.127447 
-0.35525 -0.143184 -0.107812 -0.375245 -0.148429 -0.0878884 -0.354368 -0.149872 -0.0741142 
-0.327787 -0.150785 -0.0611979 -0.288796 -0.147278 -0.0534361 -0.248703 -0.143378 -0.0461325 
-0.227868 -0.134232 -0.0407669 -0.207853 -0.124863 -0.0354838 0.0555455 0.1563 -0.00548371 
0.0279044 0.15472 -0.00980524 0.00167829 0.152233 -0.0137367 -0.0202213 0.146852 -0.0167853 
-0.0410114 0.14073 -0.0196076 -0.0573163 0.132307 -0.0213009 -0.0727458 0.123435 -0.0227739 
-0.0835606 0.113561 -0.0228697 -0.0937314 0.103548 -0.0227735 -0.099521 0.0939112 -0.021437 
-0.104921 0.0843074 -0.0199903 -0.106676 0.0760161 -0.0178064 -0.108276 0.0677807 -0.0155911 
0.0528199 0.181259 -0.0216971 0.023478 0.176766 -0.0248585 -0.00449616 0.171465 -0.0275554 
-0.0279994 0.163069 -0.0292435 -0.0503563 0.15388 -0.030673 -0.0676496 0.142291 -0.0309764 
-0.0839548 0.130233 -0.03106 -0.0948637 0.117579 -0.0299111 -0.10502 0.104842 -0.0285903 
-0.110168 0.0932613 -0.0262675 -0.114872 0.0817832 -0.0238557 -0.116144 0.0724384 -0.0209637 
-0.117271 0.0631843 -0.0180513 0.0484832 0.205421 -0.0388466 0.0174845 0.198325 -0.0406883 
-0.0122719 0.190489 -0.0420075 -0.0374884 0.179126 -0.042188 -0.0615406 0.166858 -0.0420767 
-0.0798277 0.151928 -0.0408406 -0.0969898 0.13648 -0.0393851 -0.107804 0.12087 -0.0368835 
-0.117733 0.105238 -0.0342361 -0.121959 0.0916587 -0.0308855 -0.125678 0.0782614 -0.0274725 
-0.12632 0.0679067 -0.0238801 -0.126831 0.0576815 -0.02028 0.0401184 0.22759 -0.0583366 
0.0075734 0.218665 -0.05846 -0.0240511 0.208991 -0.0580432 -0.0512542 0.194781 -0.0563484 
-0.0773235 0.179407 -0.0543259 -0.0966178 0.160701 -0.0511768 -0.11459 0.141345 -0.0478078 
-0.124838 0.122343 -0.0436838 -0.134008 0.103391 -0.0394543 -0.136608 0.0876744 -0.0349724 
-0.138624 0.0722458 -0.0304681 -0.138262 0.0609905 -0.0261943 -0.137798 0.0499127 -0.0219302 
0.0311523 0.24666 -0.0793218 -0.00319888 0.236561 -0.0776714 -0.0370761 0.225667 -0.0754759 
-0.0667652 0.208795 -0.0717406 -0.0953803 0.190389 -0.0676104 -0.115845 0.167739 -0.0622661 
-0.134719 0.144261 -0.0566848 -0.144087 0.12179 -0.0507102 -0.152128 0.0994595 -0.0446806 
-0.152634 0.0817271 -0.038969 -0.15247 0.0644034 -0.0332857 -0.150872 0.0524515 -0.0283202 
-0.149212 0.0407282 -0.0233852 0.0209461 0.259335 -0.103391 -0.0157474 0.24942 -0.0998521 
-0.0526704 0.238577 -0.0957897 -0.0858754 0.219424 -0.0896733 -0.118127 0.19814 -0.0830304 
-0.140098 0.171199 -0.0749087 -0.160062 0.143154 -0.0664985 -0.167904 0.117056 -0.0582031 
-0.174055 0.0912311 -0.0499235 -0.1715 0.0717312 -0.0427794 -0.168171 0.0527936 -0.0357362 
-0.164859 0.0405659 -0.0300579 -0.161549 0.0286237 -0.0244377 0.0118234 0.263721 -0.128867 
-0.0278265 0.25443 -0.123766 -0.0686379 0.244107 -0.118177 -0.106408 0.223043 -0.109586 
-0.143397 0.199224 -0.100224 -0.167157 0.168425 -0.0888557 -0.188335 0.136265 -0.0770963 
-0.19408 0.107203 -0.0661338 -0.197671 0.0785725 -0.0552823 -0.191389 0.057975 -0.0465936 
-0.184228 0.0380915 -0.0380971 -0.178923 0.0261137 -0.0317041 -0.173697 0.0144722 -0.0254005 
0.00456695 0.253831 -0.156768 -0.0390971 0.245921 -0.150663 -0.0852481 0.236927 -0.144137 
-0.129388 0.214587 -0.132907 -0.173013 0.188826 -0.120471 -0.19905 0.154917 -0.105049 
-0.221655 0.119419 -0.0890443 -0.224317 0.0885302 -0.0748183 -0.224197 0.0582842 -0.0608405 
-0.213038 0.0377428 -0.0504144 -0.200899 0.018064 -0.040304 -0.193118 0.0072414 -0.0331927 
-0.185522 -0.00320442 -0.0262091 -0.00168145 0.228295 -0.183085 -0.0496674 0.220491 -0.176685 
-0.101645 0.21166 -0.169969 -0.152797 0.188705 -0.156274 -0.203737 0.162127 -0.140789 
-0.231935 0.127456 -0.121093 -0.255696 0.0912051 -0.100574 -0.254626 0.0607251 -0.083072 
-0.250092 0.0310503 -0.0659904 -0.233626 0.0119968 -0.0539601 -0.216101 -0.00611253 -0.0423787 
-0.20572 -0.0149239 -0.0346504 -0.195643 -0.0233396 -0.0270861 -0.0064681 0.180071 -0.207107 
-0.059222 0.170525 -0.201436 -0.117731 0.160168 -0.195615 -0.176824 0.137553 -0.179705 
-0.236067 0.111795 -0.16121 -0.26626 0.0797627 -0.136919 -0.290784 0.0465066 -0.111498 
-0.28504 0.0196777 -0.0907008 -0.275073 -0.00625458 -0.0705483 -0.252675 -0.021744 -0.0571068 
-0.229173 -0.0363052 -0.0442619 -0.216014 -0.041864 -0.0360632 -0.203295 -0.0470396 -0.0280622 
-0.0158224 0.118418 -0.221674 -0.071915 0.104884 -0.216558 -0.134971 0.090811 -0.211475 
-0.199388 0.0690474 -0.194202 -0.264155 0.0453117 -0.173804 -0.295039 0.0186462 -0.146613 
-0.319312 -0.00859081 -0.118097 -0.30923 -0.0295402 -0.0954111 -0.294354 -0.0496122 -0.0735382 
-0.266686 -0.0602968 -0.0594381 -0.237881 -0.0701469 -0.0460289 -0.222221 -0.0716678 -0.0376364 
-0.20712 -0.0728342 -0.0294574 -0.0307825 0.0402848 -0.224635 -0.0884597 0.020006 -0.219862 
-0.153625 -0.000470795 -0.215327 -0.220156 -0.0207561 -0.197734 -0.287037 -0.0409922 -0.176793 
-0.317014 -0.0589444 -0.14878 -0.33979 -0.0764509 -0.119389 -0.325782 -0.0887855 -0.0965398 
-0.306641 -0.100399 -0.0746039 -0.274513 -0.104755 -0.0607687 -0.241231 -0.108467 -0.0476535 
-0.223411 -0.104986 -0.0394066 -0.206249 -0.1012 -0.031367 -0.0540883 -0.0309046 -0.213192 
-0.111028 -0.0572468 -0.207839 -0.174937 -0.083535 -0.202917 -0.239018 -0.10301 -0.186398 
-0.303141 -0.120738 -0.166905 -0.330309 -0.131706 -0.141268 -0.350266 -0.141354 -0.114432 
-0.333212 -0.146528 -0.0938859 -0.310994 -0.151078 -0.0742179 -0.275406 -0.149668 -0.0618139 
-0.23863 -0.147729 -0.0500557 -0.218974 -0.139047 -0.0422459 -0.200046 -0.130078 -0.0346042 
0.0498293 0.140133 -0.0036332 0.0233414 0.139517 -0.00891716 -0.00193301 0.138104 -0.0135135 
-0.0230456 0.133992 -0.0166126 -0.043091 0.129188 -0.0193277 -0.0586546 0.122125 -0.020682 
-0.0733437 0.114622 -0.0217708 -0.0834745 0.106003 -0.0215927 -0.0929693 0.0972284 -0.021238 
-0.0982646 0.0886113 -0.0198933 -0.103187 0.0800081 -0.0184607 -0.104755 0.0724709 -0.0164766 
-0.10618 0.064979 -0.0144691 0.0480918 0.163527 -0.0198009 0.0200611 0.160227 -0.0240987 
-0.00681956 0.156197 -0.0276189 -0.0294555 0.14928 -0.0294335 -0.0510029 0.141623 -0.0308108 
-0.0675695 0.131627 -0.0307559 -0.083164 0.121173 -0.0304215 -0.093489 0.109959 -0.0289293 
-0.103079 0.0986391 -0.0272755 -0.107874 0.0881701 -0.0248717 -0.112243 0.0777769 -0.0224013 
-0.113406 0.0691992 -0.0196564 -0.114432 0.0606988 -0.0168999 0.0449043 0.185871 -0.037137 
0.0153548 0.180155 -0.0403383 -0.0131733 0.173751 -0.0426857 -0.037431 0.164091 -0.0430854 
-0.0605937 0.153596 -0.0429856 -0.0781689 0.140549 -0.0413516 -0.0946538 0.127003 -0.0394183 
-0.10501 0.113071 -0.0364635 -0.114511 0.0990846 -0.0333661 -0.118556 0.0867331 -0.0298199 
-0.122117 0.074527 -0.0262339 -0.12274 0.0649596 -0.0227033 -0.123238 0.0555044 -0.0191751 
0.0380919 0.205589 -0.0573941 0.00708323 0.198129 -0.0592234 -0.0231953 0.18996 -0.0601563 
-0.0493209 0.177709 -0.0588146 -0.0743815 0.164412 -0.0568896 -0.0929799 0.148023 -0.0532519 
-0.110317 0.13103 -0.04928 -0.120296 0.114072 -0.0444916 -0.129249 0.0971173 -0.0395892 
-0.131921 0.0828065 -0.0346926 -0.134035 0.0687306 -0.0297965 -0.133781 0.0583 -0.0254177 
-0.133427 0.0480244 -0.0210609 0.0306544 0.222092 -0.0794245 -0.00203749 0.213384 -0.0799321 
-0.0343876 0.203907 -0.0794995 -0.0627806 0.189234 -0.0762695 -0.090159 0.17323 -0.0723223 
-0.109909 0.153432 -0.066344 -0.12817 0.132895 -0.0599694 -0.137513 0.112906 -0.0530456 
-0.145612 0.0929936 -0.0460452 -0.14651 0.0768631 -0.0396429 -0.146768 0.0610689 -0.0332936 
-0.145434 0.0499801 -0.0280221 -0.144033 0.0390914 -0.0227964 0.0219277 0.231964 -0.105112 
-0.0129096 0.223028 -0.104402 -0.0479938 0.21319 -0.102705 -0.0794783 0.196445 -0.0972836 
-0.11004 0.177928 -0.0909077 -0.131205 0.154584 -0.0818942 -0.150537 0.130299 -0.072366 
-0.158711 0.107273 -0.0626846 -0.165328 0.084422 -0.0529817 -0.163625 0.0667603 -0.0447532 
-0.161183 0.0495599 -0.0366557 -0.15835 0.0382359 -0.0303995 -0.1555 0.0271618 -0.0242216 
0.0137556 0.234363 -0.132469 -0.0237024 0.225432 -0.131006 -0.0621489 0.215488 -0.1285 
-0.0974677 0.196962 -0.120797 -0.131984 0.176235 -0.11176 -0.154756 0.149778 -0.0991473 
-0.175235 0.122204 -0.0858369 -0.181795 0.0967409 -0.0729546 -0.186412 0.0715726 -0.060132 
-0.18156 0.0529797 -0.049912 -0.175867 0.0349712 -0.0399234 -0.171292 0.0239025 -0.0326613 
-0.166765 0.0131291 -0.0255152 0.00653845 0.223892 -0.162698 -0.0343587 0.21537 -0.161286 
-0.0772495 0.205756 -0.158758 -0.117682 0.185952 -0.148614 -0.157483 0.163535 -0.136516 
-0.182187 0.134711 -0.119333 -0.203946 0.104637 -0.101158 -0.208126 0.0777723 -0.0843115 
-0.209853 0.0513558 -0.0676508 -0.200908 0.032865 -0.0551545 -0.191015 0.0150786 -0.0430283 
-0.184281 0.00511026 -0.0347238 -0.17768 -0.00452544 -0.0265819 -0.000531192 0.200836 -0.191374 
-0.0450421 0.191744 -0.190714 -0.0926325 0.181582 -0.188895 -0.138467 0.160919 -0.176444 
-0.183851 0.137564 -0.161266 -0.210315 0.10804 -0.139242 -0.233087 0.0773121 -0.115881 
-0.234384 0.0507351 -0.0950297 -0.232685 0.0247371 -0.074529 -0.219271 0.00751934 -0.0598946 
-0.204816 -0.00891801 -0.0457816 -0.195793 -0.0170126 -0.0365566 -0.187001 -0.0247521 -0.0275395 
-0.00738695 0.15953 -0.217796 -0.0557651 0.148452 -0.218908 -0.108425 0.136465 -0.218858 
-0.160081 0.115552 -0.204293 -0.211478 0.0923498 -0.186007 -0.239451 0.0645436 -0.158747 
-0.262852 0.0358393 -0.129737 -0.260536 0.0119983 -0.104822 -0.254633 -0.0111642 -0.0804784 
-0.236205 -0.025411 -0.0639062 -0.216664 -0.0388654 -0.0480248 -0.205166 -0.0439647 -0.0380561 
-0.194011 -0.0487084 -0.028339 -0.0181739 0.108363 -0.234349 -0.0693547 0.0937545 -0.236688 
-0.125619 0.0784603 -0.237922 -0.181161 0.0574843 -0.221988 -0.236518 0.0350514 -0.201651 
-0.264899 0.010605 -0.170959 -0.288017 -0.0142342 -0.138247 -0.282117 -0.0338726 -0.110831 
-0.272168 -0.0527854 -0.084155 -0.249039 -0.063118 -0.0665112 -0.224738 -0.0726879 -0.0496703 
-0.210898 -0.0740573 -0.0393094 -0.197503 -0.0750777 -0.0292243 -0.0337854 0.0450937 -0.238788 
-0.0864627 0.0250594 -0.241686 -0.144533 0.00463681 -0.24361 -0.201588 -0.016171 -0.227219 
-0.258382 -0.0370776 -0.206131 -0.285823 -0.0561495 -0.17422 -0.307536 -0.0748633 -0.140197 
-0.298086 -0.0884993 -0.112199 -0.284288 -0.101427 -0.085042 -0.25684 -0.106687 -0.0673898 
-0.228179 -0.111266 -0.0505824 -0.212161 -0.108004 -0.0402607 -0.19668 -0.104408 -0.0302151 
-0.0559395 -0.012015 -0.228441 -0.10854 -0.0370831 -0.230418 -0.166161 -0.0623512 -0.231614 
-0.221665 -0.0836823 -0.215993 -0.276626 -0.104004 -0.196058 -0.301598 -0.119288 -0.166269 
-0.32072 -0.133588 -0.134556 -0.30791 -0.14266 -0.108652 -0.290644 -0.151001 -0.0835584 
-0.259198 -0.151736 -0.0672069 -0.226492 -0.151795 -0.0516325 -0.208353 -0.143569 -0.0417365 
-0.190834 -0.134991 -0.0320821 0.0423967 0.125273 -0.00217229 0.0176406 0.125378 -0.00793748 
-0.00613024 0.12481 -0.0128803 -0.0260838 0.121812 -0.0160033 -0.0450586 0.118191 -0.0186596 
-0.0597595 0.112417 -0.0198263 -0.0736263 0.106224 -0.0207023 -0.0831366 0.0988396 -0.02037 
-0.0920389 0.0912884 -0.0198691 -0.096964 0.0836881 -0.0185248 -0.101536 0.0760835 -0.0171056 
-0.10298 0.0692938 -0.0152598 -0.10429 0.0625389 -0.0133958 0.0413487 0.146884 -0.0172357 
0.0152428 0.144461 -0.0221749 -0.00994906 0.141406 -0.0261977 -0.031294 0.135775 -0.0281599 
-0.0516524 0.129482 -0.0295937 -0.0673263 0.121009 -0.0294296 -0.0820861 0.11211 -0.0289536 
-0.0918662 0.102353 -0.0273484 -0.100952 0.0924769 -0.0255856 -0.105512 0.08317 -0.0232022 
-0.109671 0.0739137 -0.0207637 -0.110788 0.0661464 -0.0181698 -0.111775 0.0584424 -0.0155693 
0.0389615 0.167227 -0.0334949 0.011516 0.162502 -0.0375196 -0.0151354 0.157166 -0.0405457 
-0.0379466 0.148972 -0.04123 -0.0597731 0.140046 -0.0413139 -0.0764141 0.128809 -0.0396528 
-0.0920432 0.117122 -0.0376513 -0.101948 0.10492 -0.0346181 -0.111054 0.0926461 -0.031441 
-0.115031 0.0816267 -0.0279222 -0.118553 0.0707188 -0.0243729 -0.119223 0.0620311 -0.0209923 
-0.119772 0.0534379 -0.0176188 0.0332265 0.184402 -0.0527438 0.00446661 0.177937 -0.0556328 
-0.0237404 0.170834 -0.0574706 -0.0482056 0.160257 -0.0565842 -0.0717113 0.148788 -0.0549994 
-0.0893045 0.134631 -0.0514262 -0.105744 0.119949 -0.0474651 -0.11541 0.105118 -0.0426165 
-0.124131 0.0902673 -0.0376441 -0.126977 0.0775205 -0.0327485 -0.129301 0.0649607 -0.0278597 
-0.129227 0.0554962 -0.0235959 -0.129051 0.0461634 -0.0193586 0.0267768 0.198375 -0.0736845 
-0.00347229 0.190538 -0.075505 -0.0334801 0.182009 -0.076216 -0.0598916 0.1692 -0.0736303 
-0.0853809 0.155293 -0.0701994 -0.104008 0.138217 -0.0643982 -0.121297 0.120521 -0.0581345 
-0.130507 0.103109 -0.0511749 -0.13859 0.085737 -0.0441182 -0.139968 0.0714121 -0.0376828 
-0.140751 0.0573579 -0.0313027 -0.139758 0.0473155 -0.0261007 -0.138691 0.0374436 -0.0209488 
0.0188529 0.205746 -0.0981146 -0.0132458 0.197295 -0.0990051 -0.0455596 0.18804 -0.098716 
-0.0745207 0.173313 -0.0941659 -0.102622 0.157183 -0.0885232 -0.122452 0.13719 -0.0798423 
-0.140669 0.116445 -0.0705686 -0.148975 0.096548 -0.0608883 -0.155898 0.0767696 -0.0511513 
-0.155114 0.0611741 -0.0428399 -0.153646 0.0459505 -0.0346552 -0.151377 0.0357401 -0.0284018 
-0.149073 0.0257429 -0.0222306 0.0110154 0.206563 -0.123958 -0.023277 0.197632 -0.12433 
-0.0583391 0.187799 -0.123434 -0.0903468 0.17138 -0.116842 -0.121571 0.153273 -0.10879 
-0.142708 0.130741 -0.0967404 -0.161876 0.107347 -0.0839111 -0.168924 0.0854737 -0.0711109 
-0.174281 0.0638126 -0.0583147 -0.170889 0.0474611 -0.0479696 -0.166719 0.0315815 -0.0378423 
-0.162966 0.0216449 -0.0305163 -0.159231 0.0119612 -0.0233094 0.00332671 0.196094 -0.152237 
-0.0337521 0.186912 -0.152796 -0.0723237 0.176756 -0.15197 -0.108234 0.159036 -0.143204 
-0.143463 0.139376 -0.132402 -0.166084 0.114953 -0.116143 -0.186245 0.0896015 -0.098818 
-0.191426 0.0666274 -0.0822102 -0.194517 0.0439849 -0.0657024 -0.187745 0.0277631 -0.0530521 
-0.180097 0.012112 -0.0407446 -0.174505 0.00321013 -0.0323092 -0.169001 -0.00540452 -0.0240385 
-0.00472553 0.175665 -0.178827 -0.0446913 0.165526 -0.180099 -0.0869036 0.154415 -0.179888 
-0.126823 0.135648 -0.169059 -0.166154 0.114917 -0.155508 -0.190058 0.0897409 -0.13486 
-0.210953 0.0636972 -0.112827 -0.213848 0.0408406 -0.0924131 -0.214232 0.0184288 -0.0722255 
-0.203737 0.00325551 -0.0574152 -0.192275 -0.0112744 -0.0430829 -0.18471 -0.0184655 -0.033671 
-0.177312 -0.0253444 -0.0244684 -0.0133049 0.140793 -0.20297 -0.0563033 0.128675 -0.205716 
-0.102347 0.115691 -0.206908 -0.146427 0.0962457 -0.194178 -0.190005 0.0751441 -0.177879 
-0.214901 0.0508634 -0.152583 -0.236153 0.0259625 -0.125533 -0.236156 0.00499038 -0.101316 
-0.233194 -0.0154336 -0.077495 -0.218476 -0.028226 -0.0607353 -0.202712 -0.04034 -0.0446032 
-0.19298 -0.0448404 -0.0344075 -0.183505 -0.0490168 -0.0244644 -0.0251284 0.0987684 -0.218215 
-0.0704266 0.0836078 -0.221883 -0.119286 0.0677289 -0.223993 -0.166157 0.0475999 -0.209941 
-0.212518 0.026381 -0.191746 -0.23752 0.00390953 -0.163329 -0.258355 -0.0188062 -0.132918 
-0.255295 -0.0370032 -0.106282 -0.248901 -0.0545697 -0.0801723 -0.229997 -0.0642959 -0.0622755 
-0.209981 -0.0733252 -0.0451088 -0.198092 -0.0744649 -0.0344999 -0.18655 -0.0752688 -0.0241701 
-0.0409334 0.0479636 -0.22254 -0.087632 0.0284575 -0.226452 -0.138063 0.00843044 -0.228885 
-0.186041 -0.0123907 -0.214223 -0.23339 -0.0334153 -0.195177 -0.25741 -0.0529564 -0.165512 
-0.276879 -0.0722079 -0.133774 -0.270546 -0.0865365 -0.106415 -0.260612 -0.100178 -0.0796682 
-0.237569 -0.105997 -0.0616314 -0.21336 -0.111121 -0.0443689 -0.199329 -0.108078 -0.0338018 
-0.185731 -0.104687 -0.0235195 -0.0617987 0.00249549 -0.213964 -0.108928 -0.0211538 -0.216805 
-0.159516 -0.0452392 -0.21833 -0.206615 -0.0674527 -0.203978 -0.252819 -0.0891862 -0.185555 
-0.274686 -0.10727 -0.157348 -0.291805 -0.124642 -0.127231 -0.281973 -0.13649 -0.101424 
-0.268379 -0.147568 -0.076219 -0.241016 -0.149982 -0.0592332 -0.212429 -0.151627 -0.0429781 
-0.196102 -0.143959 -0.0328859 -0.180296 -0.135894 -0.0230559 0.034578 0.110707 -0.000799046 
0.0116837 0.111477 -0.00693719 -0.0104593 0.111705 -0.0121548 -0.0291702 0.109786 -0.0152958 
-0.0470011 0.107316 -0.0179042 -0.0608118 0.102816 -0.0189174 -0.073838 0.09792 -0.0196192 
-0.0827419 0.0917648 -0.0191595 -0.0910707 0.0854338 -0.0185377 -0.0956536 0.0788497 -0.0171958 
-0.0999035 0.072243 -0.0157898 -0.101238 0.0661996 -0.0140684 -0.102447 0.0601801 -0.0123335 
0.0341523 0.130485 -0.0145198 0.0101091 0.128869 -0.0199892 -0.0132599 0.126724 -0.0244423 
-0.0332185 0.122333 -0.0265569 -0.0523026 0.117367 -0.0280718 -0.0670465 0.110401 -0.0278544 
-0.0809435 0.103046 -0.027299 -0.0901876 0.0947504 -0.0256326 -0.0987825 0.0863239 -0.0238112 
-0.103135 0.0781903 -0.0214712 -0.107111 0.0700828 -0.019085 -0.108196 0.0631355 -0.0166428 
-0.109158 0.0562375 -0.0141982 0.0324869 0.148787 -0.0294179 0.00729263 0.144965 -0.0341454 
-0.017336 0.140615 -0.0377715 -0.0385911 0.133834 -0.0387553 -0.0589811 0.12643 -0.0390616 
-0.0746377 0.116988 -0.0374568 -0.0893708 0.107149 -0.0354792 -0.0988259 0.0966893 -0.0324521 
-0.107545 0.0861436 -0.0292786 -0.111479 0.0764796 -0.0258372 -0.114988 0.066894 -0.022372 
-0.11572 0.0591069 -0.0191611 -0.116335 0.0513963 -0.0159609 0.0277224 0.163398 -0.0472592 
0.00137154 0.157822 -0.0510625 -0.0246009 0.151688 -0.0537051 -0.0472745 0.142719 -0.0532971 
-0.0691021 0.133024 -0.0521069 -0.0856205 0.121078 -0.0487228 -0.101103 0.108694 -0.0449106 
-0.110446 0.0960118 -0.0401378 -0.118933 0.0832875 -0.0352309 -0.121976 0.0721404 -0.0304299 
-0.124535 0.0611335 -0.0256384 -0.124657 0.052667 -0.0215388 -0.124675 0.0443086 -0.0174688 
0.0221387 0.17485 -0.0666299 -0.00549124 0.167768 -0.0695731 -0.0329733 0.16008 -0.0712883 
-0.0572491 0.149058 -0.0693783 -0.0807027 0.137182 -0.0665386 -0.0981158 0.122796 -0.061097 
-0.11435 0.107921 -0.0551477 -0.123403 0.0931077 -0.0483577 -0.131454 0.0783027 -0.0414505 
-0.133332 0.0658289 -0.0351302 -0.134662 0.0535623 -0.028862 -0.134029 0.0446074 -0.0238141 
-0.133312 0.0357933 -0.018818 0.0148653 0.179787 -0.0891549 -0.0142962 0.17171 -0.0913704 
-0.04363 0.162943 -0.092274 -0.069887 0.150147 -0.0886344 -0.0953548 0.136317 -0.0838298 
-0.113731 0.119621 -0.075757 -0.130723 0.102365 -0.0670465 -0.139116 0.0856114 -0.0576796 
-0.14631 0.0689274 -0.048221 -0.146461 0.0554495 -0.040052 -0.145986 0.0422566 -0.0319976 
-0.144299 0.033207 -0.0258777 -0.142561 0.0243337 -0.0198402 0.00722393 0.179114 -0.112723 
-0.0236839 0.1701 -0.114522 -0.0551319 0.160319 -0.114904 -0.0836351 0.145911 -0.109475 
-0.111383 0.130317 -0.102556 -0.13074 0.111617 -0.0914763 -0.14846 0.092311 -0.0795853 
-0.155923 0.0740252 -0.0673176 -0.161955 0.0558817 -0.0549972 -0.160028 0.0418248 -0.0448434 
-0.157394 0.0281311 -0.0348821 -0.154484 0.0193768 -0.0276732 -0.151561 0.0108327 -0.0205815 
-0.00105128 0.168778 -0.138087 -0.0340753 0.158926 -0.140005 -0.0680893 0.148245 -0.140366 
-0.0992955 0.132507 -0.133044 -0.129782 0.115471 -0.123752 -0.150151 0.0952964 -0.10902 
-0.168546 0.0745095 -0.0932265 -0.174612 0.0553953 -0.0775002 -0.178958 0.0365145 -0.0617833 
-0.17435 0.0226108 -0.0494101 -0.168946 0.00914954 -0.0373341 -0.164519 0.00136198 -0.0290068 
-0.160134 -0.00618416 -0.0208389 -0.0101224 0.151009 -0.161592 -0.0453021 0.139878 -0.163938 
-0.0819134 0.127904 -0.164596 -0.115783 0.110942 -0.155475 -0.148949 0.0927014 -0.143846 
-0.170109 0.0716931 -0.125408 -0.188926 0.0501448 -0.105642 -0.193247 0.0309677 -0.0865174 