# vtk DataFile Version 2.0
vtk output
ASCII
DATASET RECTILINEAR_GRID
DIMENSIONS 13 13 13
X_COORDINATES 13 float
-5 -4.79167 -4.58333 -4.375 -4.16667 -3.95833 -3.75 -3.54167 -3.33333 
-3.125 -2.91667 -2.70833 -2.5 
Y_COORDINATES 13 float
7.5 7.70833 7.91667 8.125 8.33333 8.54167 8.75 8.95833 9.16667 
9.375 9.58333 9.79167 10 
Z_COORDINATES 13 float
-7.5 -7.29167 -7.08333 -6.875 -6.66667 -6.45833 -6.25 -6.04167 -5.83333 
-5.625 -5.41667 -5.20833 -5 
POINT_DATA 2197
VECTORS grad float
0.0468603 0.0134374 -0.0509486 0.0448317 0.00981769 -0.050954 0.0411961 0.00674672 -0.0508973 
0.036139 0.00416114 -0.0507856 0.0292211 0.00189998 -0.0500571 0.0209077 -0.000117867 -0.048866 
0.0111041 -0.00208053 -0.0463982 0.000356732 -0.00400824 -0.0431219 -0.0109672 -0.00612988 -0.0382612 
-0.0225973 -0.00835455 -0.0325587 -0.0338302 -0.0109501 -0.025492 -0.0448878 -0.0137094 -0.0178234 
-0.055007 -0.0169252 -0.00919762 0.0423049 0.00806407 -0.051402 0.0409064 0.0037334 -0.051247 
0.0378173 -2.63205e-06 -0.0511564 0.0332326 -0.00321265 -0.0511228 0.0266794 -0.00596682 -0.0505686 
0.0186499 -0.00837909 -0.0496238 0.00901344 -0.0105169 -0.0474473 -0.00164065 -0.012481 -0.0444906 
-0.0129797 -0.0143792 -0.0399312 -0.0246828 -0.0162424 -0.0345203 -0.0360671 -0.0182406 -0.0276706 
-0.0473109 -0.0202985 -0.0201861 -0.0576468 -0.022627 -0.0116451 0.0373883 0.00214414 -0.0519166 
0.0366307 -0.0028932 -0.0515495 0.0341156 -0.00728967 -0.0513729 0.0300457 -0.0111192 -0.0513648 
0.0239196 -0.0143608 -0.0509412 0.0162513 -0.0171613 -0.050206 0.006872 -0.0194645 -0.0483064 
-0.00359094 -0.0214527 -0.0456693 -0.0148503 -0.0231086 -0.0414357 -0.0265327 -0.024588 -0.0363538 
-0.0379895 -0.025959 -0.0297682 -0.0493467 -0.0272821 -0.0225193 -0.0598392 -0.0286828 -0.014109 
0.0314766 -0.004754 -0.0522089 0.0313937 -0.0103087 -0.0514448 0.0295298 -0.0151953 -0.0509916 
0.0260904 -0.019491 -0.0508132 0.0205679 -0.0231012 -0.0503497 0.0134833 -0.0261973 -0.0496723 
0.00462876 -0.0286181 -0.04797 -0.00534661 -0.030611 -0.0456187 -0.0162272 -0.0320437 -0.0417631 
-0.0275888 -0.0331786 -0.0371084 -0.0388511 -0.033976 -0.0309355 -0.0500697 -0.0346245 -0.0240927 
-0.0605012 -0.0351487 -0.0159889 0.0253098 -0.0119029 -0.0524441 0.0259103 -0.0179264 -0.0512357 
0.0247174 -0.0232596 -0.050457 0.0219379 -0.0279821 -0.0500582 0.0170644 -0.0319305 -0.049511 
0.0106204 -0.0352984 -0.0488526 0.00235941 -0.0378244 -0.0473272 -0.00705237 -0.0398173 -0.0452527 
-0.0174776 -0.0410315 -0.0417887 -0.0284412 -0.041832 -0.0375864 -0.0394407 -0.0420696 -0.0318641 
-0.050456 -0.0420588 -0.0254714 -0.0607709 -0.0417198 -0.0177192 0.0186856 -0.0194247 -0.052193 
0.0199579 -0.0255693 -0.0504331 0.0194536 -0.0310427 -0.0492117 0.0173776 -0.0359223 -0.0484667 
0.0132422 -0.0400021 -0.047712 0.00756225 -0.0434819 -0.0469502 6.23199e-05 -0.0460371 -0.0455039 
-0.00859028 -0.0480067 -0.0436241 -0.0183383 -0.0490602 -0.0405147 -0.0286682 -0.049627 -0.036752 
-0.0391667 -0.0494547 -0.0315231 -0.0497396 -0.0489563 -0.0256473 -0.0597134 -0.0479405 -0.0183645 
0.0119721 -0.0270192 -0.051847 0.0139141 -0.0332171 -0.0495147 0.0141018 -0.0387709 -0.0478278 
0.0127376 -0.0437551 -0.0467119 0.00935767 -0.0479258 -0.0457256 0.00446597 -0.0514864 -0.0448366 
-0.00224017 -0.0540558 -0.0434503 -0.0100954 -0.0559976 -0.0417491 -0.0191229 -0.0569017 -0.0389871 
-0.0287731 -0.0572545 -0.0356615 -0.0387242 -0.0567015 -0.0309342 -0.048808 -0.055749 -0.0255885 
-0.058397 -0.0540928 -0.018798 0.00565421 -0.0345288 -0.0508407 0.00815057 -0.0403762 -0.0479672 
0.00893924 -0.0456604 -0.0458214 0.00821728 -0.0504464 -0.0443194 0.00555535 -0.0544718 -0.0430573 
0.00143846 -0.0579267 -0.0419751 -0.00444626 -0.0604078 -0.0405537 -0.0114506 -0.0622722 -0.0389174 
-0.0196561 -0.0630643 -0.0363851 -0.0284998 -0.0632866 -0.0333769 -0.0377381 -0.0625067 -0.0290779 
-0.0471504 -0.0612845 -0.0242094 -0.056164 -0.0592194 -0.0179404 -0.000608494 -0.0420265 -0.0497422 
0.00242608 -0.0474672 -0.0463319 0.00380303 -0.0524329 -0.0437281 0.00371362 -0.0569785 -0.041838 
0.00176447 -0.0608256 -0.0402938 -0.00157947 -0.0641488 -0.0390093 -0.00663892 -0.0665273 -0.0375394 
-0.0127848 -0.0683074 -0.0359522 -0.0201543 -0.0689926 -0.0336332 -0.0281737 -0.0690962 -0.0309255 
-0.036676 -0.0681106 -0.0270447 -0.0453914 -0.0666446 -0.0226462 -0.053803 -0.0642029 -0.0169027 
-0.00558515 -0.0490076 -0.0478571 -0.00225618 -0.0537194 -0.0440739 -0.00050081 -0.0580856 -0.0411307 
-0.000137455 -0.0621461 -0.0389304 -0.00152478 -0.0656147 -0.0371341 -0.00422512 -0.0686392 -0.0356408 
-0.00855107 -0.0708031 -0.0340631 -0.0139066 -0.0724219 -0.0324319 -0.0204545 -0.0729897 -0.0302037 
-0.0276358 -0.072999 -0.0276581 -0.0353357 -0.0719056 -0.0240814 -0.0432643 -0.0703257 -0.0200497 
-0.0509623 -0.0677098 -0.0147967 -0.0104475 -0.0559427 -0.0459021 -0.0068458 -0.059897 -0.0417607 
-0.00473066 -0.0636387 -0.0384884 -0.00393052 -0.0671924 -0.0359851 -0.00476946 -0.0702646 -0.0339392 
-0.00683769 -0.0729757 -0.0322364 -0.0104383 -0.0749152 -0.0305456 -0.0150094 -0.0763658 -0.0288623 
-0.020737 -0.0768151 -0.0267138 -0.0270791 -0.0767323 -0.0243182 -0.0339706 -0.0755398 -0.0210355 
-0.0411045 -0.0738577 -0.0173614 -0.0480789 -0.0710854 -0.0125957 -0.0134368 -0.0593595 -0.0431461 
-0.00987954 -0.0628572 -0.0388852 -0.00767986 -0.0662184 -0.0354674 -0.00668111 -0.0694589 -0.0327954 
-0.00718217 -0.0722824 -0.0305862 -0.00880807 -0.0747933 -0.0287241 -0.0118435 -0.076588 -0.0269221 
-0.0157715 -0.077929 -0.0251581 -0.0207786 -0.0783077 -0.0230264 -0.026359 -0.0781751 -0.0206994 
-0.0324753 -0.0769469 -0.0176251 -0.0388279 -0.0752354 -0.0142211 -0.0450672 -0.0724261 -0.0098782 
-0.0163464 -0.0626266 -0.0403559 -0.0128471 -0.0656806 -0.0359858 -0.0105746 -0.0686716 -0.0324303 
-0.00938735 -0.0716071 -0.0295954 -0.00955949 -0.0741883 -0.0272265 -0.0107511 -0.0765037 -0.0252071 
-0.0132281 -0.078157 -0.023294 -0.0165191 -0.0793909 -0.0214482 -0.02081 -0.079701 -0.0193306 
-0.025632 -0.0795203 -0.0170687 -0.0309743 -0.0782592 -0.0141992 -0.0365463 -0.0765216 -0.0110616 
-0.0420501 -0.0736803 -0.00713868 0.0482525 0.0133556 -0.0470956 0.0463201 0.00991353 -0.0453227 
0.0428918 0.00689869 -0.0433607 0.0381402 0.00426178 -0.0412315 0.0316803 0.00186163 -0.0386574 
0.0239392 -0.000360946 -0.0357496 0.0148203 -0.00256339 -0.0320922 0.00482894 -0.00475307 -0.0279603 
-0.00573324 -0.00711801 -0.0229295 -0.0165987 -0.00957606 -0.0174213 -0.027139 -0.0123502 -0.0110759 
-0.0375358 -0.0152638 -0.00436122 -0.0470444 -0.018568 0.00310571 0.0439848 0.0077436 -0.0474088 
0.0425538 0.00364564 -0.0454328 0.0395579 2.00312e-05 -0.0433912 0.0351778 -0.00318775 -0.0412916 
0.0290038 -0.00603566 -0.0388412 0.0214843 -0.00861368 -0.0361277 0.0124971 -0.0109721 -0.0327108 
0.00258043 -0.0131914 -0.0288484 -0.00799054 -0.0153487 -0.0240776 -0.0189091 -0.017473 -0.0188244 
-0.0295659 -0.0196897 -0.0126798 -0.0401071 -0.0219472 -0.00614208 -0.0497901 -0.0244105 0.00121897 
0.0393835 0.00165832 -0.0479028 0.0384633 -0.00308495 -0.045705 0.0359257 -0.00731013 -0.0435646 
0.0319572 -0.011077 -0.041475 0.0261269 -0.0143609 -0.0391319 0.0189002 -0.0172825 -0.0365985 
0.0101271 -0.0197836 -0.0334166 0.000374621 -0.0220183 -0.029824 -0.010117 -0.0239501 -0.0253231 
-0.0210012 -0.0257211 -0.0203396 -0.0316981 -0.027356 -0.0144132 -0.0423123 -0.0289309 -0.00807088 
-0.0521095 -0.0305212 -0.000830783 0.0338962 -0.00519559 -0.0484883 0.0335186 -0.0104019 -0.04598 
0.0315123 -0.0150609 -0.0436483 0.0280652 -0.0192358 -0.0414726 0.0227408 -0.0228352 -0.0391509 
0.0160084 -0.026003 -0.0367195 0.007689 -0.0285896 -0.0337298 -0.00163542 -0.0308081 -0.0303863 
-0.0117789 -0.0325197 -0.0261785 -0.0223575 -0.033962 -0.0215115 -0.0328477 -0.0350595 -0.0158771 
-0.0432989 -0.0360049 -0.00981587 -0.0530031 -0.0367769 -0.00278921 0.0281817 -0.0122466 -0.0490971 
0.0283548 -0.0178692 -0.0462557 0.0268986 -0.0229196 -0.0437088 0.0240012 -0.0274637 -0.0414225 
0.0192243 -0.0313477 -0.0391002 0.0130377 -0.0347368 -0.0367509 0.00523345 -0.0373943 -0.0339422 
-0.00359525 -0.0395884 -0.0308426 -0.0133217 -0.0410811 -0.0269339 -0.0235252 -0.042201 -0.0225954 
-0.0337453 -0.0427725 -0.0172719 -0.0439729 -0.0431021 -0.0115137 -0.0535311 -0.0430698 -0.00472422 
0.0220713 -0.019504 -0.0493855 0.0227887 -0.0252327 -0.0461591 0.021905 -0.0303996 -0.0433357 
0.019605 -0.0350696 -0.0408686 0.0154632 -0.0390487 -0.038473 0.00993999 -0.0425097 -0.0361309 
0.00280515 -0.0451595 -0.0334417 -0.00535042 -0.0472954 -0.0305327 -0.0144614 -0.0486054 -0.0268987 
-0.0240799 -0.0494766 -0.0228797 -0.0338187 -0.0496447 -0.0178953 -0.0436106 -0.0495027 -0.0124851 
-0.0528228 -0.0488343 -0.00601412 0.0158838 -0.0268016 -0.0496113 0.0171442 -0.0325758 -0.0459899 
0.0168373 -0.0378057 -0.0428779 0.0151439 -0.042554 -0.0402165 0.0116543 -0.0465913 -0.0377333 
0.00681756 -0.0500952 -0.0353838 0.000382178 -0.0527219 -0.0328021 -0.00706564 -0.0547929 -0.0300732 
-0.0155223 -0.0559273 -0.0267093 -0.024515 -0.0565641 -0.0230079 -0.0337312 -0.0563528 -0.0183683 
-0.043046 -0.0557674 -0.0133146 -0.0518733 -0.0544956 -0.00717815 0.0100414 -0.0338979 -0.0491902 
0.0117542 -0.0393654 -0.0452114 0.0119562 -0.0443512 -0.0418245 0.0108218 -0.0489109 -0.0389613 
0.00796531 -0.0527966 -0.0363606 0.00381731 -0.0561767 -0.0339567 -0.00188261 -0.0586856 -0.0314188 
-0.00856541 -0.0606426 -0.028796 -0.0162747 -0.0616281 -0.0256317 -0.0245293 -0.0620975 -0.0221798 
-0.033083 -0.0616381 -0.0178524 -0.0417688 -0.060769 -0.0131387 -0.0500531 -0.0591012 -0.00737604 
0.00424711 -0.0409662 -0.0486787 0.00639969 -0.0460779 -0.0443478 0.00710117 -0.0507768 -0.040688 
0.00651898 -0.0551105 -0.037622 0.00429297 -0.0588153 -0.0348995 0.000834096 -0.0620483 -0.0324347 
-0.00412534 -0.0644262 -0.0299317 -0.0100351 -0.0662624 -0.0274046 -0.016984 -0.0671027 -0.0244302 
-0.0244848 -0.067414 -0.0212182 -0.0323567 -0.0667248 -0.0171985 -0.0403922 -0.0655943 -0.0128225 
-0.0481114 -0.0635594 -0.00743912 -0.00044044 -0.0474705 -0.0473021 0.00196009 -0.0519456 -0.0427542 
0.0029958 -0.0561115 -0.0389151 0.00282416 -0.0600038 -0.035703 0.00111129 -0.0633527 -0.0328786 
-0.00175751 -0.066294 -0.0303449 -0.00604536 -0.0684467 -0.0278367 -0.0112319 -0.0700998 -0.0253447 
-0.01743 -0.0707925 -0.0224871 -0.0241655 -0.0709749 -0.0194354 -0.0313047 -0.0701493 -0.015666 
-0.038622 -0.0688791 -0.0115799 -0.0456905 -0.066661 -0.00657527 -0.00502962 -0.0539247 -0.0458486 
-0.00239819 -0.0577383 -0.0410957 -0.00104294 -0.0613493 -0.0370856 -0.000816609 -0.0647811 -0.0337325 
-0.00202677 -0.0677585 -0.0308079 -0.0043143 -0.0703952 -0.0282047 -0.0079367 -0.0723143 -0.0256877 
-0.0124045 -0.0737788 -0.0232253 -0.0178527 -0.0743236 -0.0204781 -0.0238218 -0.0743797 -0.0175796 
-0.0302238 -0.0734261 -0.0140554 -0.0368168 -0.072027 -0.010255 -0.0432269 -0.069642 -0.00562902 
-0.00800444 -0.0570903 -0.0434838 -0.005392 -0.0605048 -0.0387206 -0.00393765 -0.0637781 -0.0346841 
-0.00350775 -0.0669266 -0.0312906 -0.00438846 -0.069674 -0.0283281 -0.00625211 -0.0721206 -0.0256889 
-0.00934296 -0.0738956 -0.0231649 -0.013211 -0.0752454 -0.0207139 -0.017996 -0.0757087 -0.0180403 
-0.0232681 -0.075701 -0.0152483 -0.0289673 -0.074698 -0.0119246 -0.034855 -0.0732559 -0.0083663 
-0.0406047 -0.070825 -0.00409281 -0.0109106 -0.0601159 -0.0410802 -0.00832776 -0.0631425 -0.0363149 
-0.00678368 -0.0660874 -0.0322583 -0.00615849 -0.0689601 -0.0288287 -0.00671712 -0.0714835 -0.0258309 
-0.00816359 -0.0737449 -0.0231571 -0.0107286 -0.0753797 -0.0206262 -0.014002 -0.0766178 -0.0181858 
-0.0181274 -0.0770024 -0.0155841 -0.0227055 -0.0769336 -0.0128967 -0.0277034 -0.0758847 -0.00977168 
-0.0328866 -0.0744033 -0.00645354 -0.0379758 -0.0719316 -0.00253148 0.0505122 0.0134555 -0.0429294 
0.0487753 0.0102291 -0.0393643 0.0455926 0.00730831 -0.0354845 0.041131 0.00465782 -0.0313262 
0.0350332 0.00215202 -0.026899 0.0277084 -0.000245269 -0.0222701 0.0190596 -0.0026658 -0.0174233 
0.00957242 -0.00510105 -0.0124385 -0.000477936 -0.00770378 -0.00725181 -0.0108275 -0.0103955 -0.00195794 
-0.0208627 -0.0133601 0.00362346 -0.0307593 -0.016445 0.00933171 -0.0397367 -0.0198651 0.0155637 
0.0465415 0.0074797 -0.0431168 0.0451788 0.00361831 -0.0393193 0.0423158 0.000107938 -0.0353288 
0.0381255 -0.00309192 -0.0311675 0.0322355 -0.00602621 -0.0268296 0.0250708 -0.0087613 -0.0223593 
0.0165186 -0.0113284 -0.0177153 0.00708773 -0.0137891 -0.0129612 -0.00296638 -0.0161896 -0.00799876 
-0.0133516 -0.0185582 -0.00292556 -0.0234727 -0.0209801 0.00247541 -0.0334775 -0.0234255 0.00802099 
-0.0425934 -0.0260212 0.0141377 0.0422473 0.0011071 -0.0436072 0.0412674 -0.00337244 -0.0395921 
0.038749 -0.00745476 -0.0355052 0.0348694 -0.0111857 -0.0313547 0.0292436 -0.014531 -0.027117 
0.0223082 -0.017587 -0.0228139 0.0139322 -0.0202845 -0.0183768 0.00464397 -0.0227551 -0.0138549 
-0.00532794 -0.0249375 -0.00911273 -0.0156631 -0.0269667 -0.00425352 -0.0257941 -0.0288277 0.0009789 
-0.0358351 -0.0306143 0.00637597 -0.0450295 -0.0323625 0.0123938 0.0371284 -0.00579001 -0.0444941 
0.0365609 -0.0107046 -0.0402669 0.0344583 -0.01519 -0.0360856 0.0309978 -0.0192957 -0.0319452 
0.0257914 -0.0229244 -0.0278023 0.0192755 -0.0261954 -0.0236578 0.0112994 -0.0289568 -0.0194201 
0.00239859 -0.0313957 -0.0151233 -0.00724062 -0.0333573 -0.0105994 -0.0172721 -0.0350655 -0.00595462 
-0.027179 -0.0364103 -0.000895314 -0.0370309 -0.0375949 0.0043469 -0.0461056 -0.0385625 0.0102535 
0.0317981 -0.0128216 -0.0454828 0.0316505 -0.0181243 -0.0410447 0.0299821 -0.0229694 -0.0367697 
0.0269684 -0.0274099 -0.032639 0.0222211 -0.0312893 -0.0285897 0.0161736 -0.034748 -0.0246015 
0.00865475 -0.0375563 -0.0205612 0.000204089 -0.0399528 -0.0164879 -0.00903819 -0.0416931 -0.0121815 
-0.018701 -0.0430848 -0.0077514 -0.0283238 -0.043925 -0.00286637 -0.0379288 -0.044522 0.00221935 
-0.0468329 -0.0447262 0.00801162 0.0261055 -0.0198513 -0.0463031 0.0263769 -0.0252567 -0.0416545 
0.0251708 -0.0302064 -0.0372759 0.0226577 -0.0347531 -0.0331361 0.0184586 -0.0387023 -0.0291538 
0.0129949 -0.0422033 -0.0252898 0.00607881 -0.0449756 -0.0214175 -0.0017571 -0.0472864 -0.0175399 
-0.0104215 -0.048827 -0.013438 -0.0195261 -0.0499583 -0.00921685 -0.0286747 -0.0504012 -0.00452194 
-0.0378427 -0.0505405 0.000381995 -0.0463972 -0.0501433 0.00601103 0.0203422 -0.0268806 -0.0470906 
0.0210325 -0.032333 -0.0422317 0.0202942 -0.0373375 -0.0377475 0.0182922 -0.0419459 -0.0335948 
0.0146586 -0.0459295 -0.0296744 0.00980121 -0.0494444 -0.0259282 0.00351629 -0.0521646 -0.0222182 
-0.00367275 -0.0543813 -0.018531 -0.011724 -0.0557263 -0.0146309 -0.0202332 -0.0566082 -0.0106176 
-0.0288707 -0.0566748 -0.00611593 -0.0375646 -0.0563818 -0.00139873 -0.0457346 -0.0554146 0.00405753 
0.014871 -0.0335611 -0.0472359 0.0159137 -0.0387484 -0.0422079 0.0155975 -0.043533 -0.0376363 
0.0140792 -0.0479616 -0.0334683 0.0110082 -0.0517885 -0.0295902 0.0067728 -0.0551643 -0.0259295 
0.00116092 -0.0577427 -0.0223441 -0.00532269 -0.0598162 -0.0188064 -0.0126765 -0.0609849 -0.0150789 
-0.0204926 -0.0616729 -0.0112505 -0.0285017 -0.0614798 -0.00694682 -0.0365961 -0.0608982 -0.00243353 
-0.0442507 -0.0595527 0.00279818 0.00944053 -0.0401931 -0.0472916 0.0108264 -0.0450716 -0.0421003 
0.0109259 -0.049598 -0.0374437 0.00988739 -0.0538131 -0.0332602 0.00737873 -0.0574568 -0.0294216 
0.00376744 -0.0606719 -0.0258417 -0.00116554 -0.0630962 -0.0223758 -0.00693557 -0.0650196 -0.0189819 
-0.0135802 -0.0660146 -0.0154229 -0.0206894 -0.0665164 -0.0117761 -0.028054 -0.06608 -0.00767124 
-0.0355312 -0.0652296 -0.00336425 -0.0426522 -0.0635326 0.00163568 0.00495684 -0.0461999 -0.0464036 
0.0065425 -0.0505229 -0.041153 0.00693342 -0.0545734 -0.036478 0.00626746 -0.0583831 -0.0323122 
0.00423249 -0.0616887 -0.0285202 0.00117076 -0.0646161 -0.0250087 -0.00313538 -0.0668061 -0.0216365 
-0.00822965 -0.068529 -0.0183525 -0.014174 -0.0693544 -0.0149322 -0.0205699 -0.069703 -0.0114396 
-0.0272546 -0.0691131 -0.00752812 -0.0340667 -0.0681091 -0.00343187 -0.0405906 -0.0662297 0.00130178 
0.000557299 -0.0521512 -0.0454317 0.00233003 -0.0558967 -0.0401312 0.00300135 -0.059452 -0.0354437 
0.00269836 -0.0628392 -0.0312984 0.0011292 -0.0657929 -0.0275537 -0.00138958 -0.0684214 -0.0241095 
-0.00507352 -0.0703699 -0.0208287 -0.00949538 -0.0718879 -0.0176515 -0.0147403 -0.0725441 -0.0143673 
-0.0204224 -0.0727424 -0.0110264 -0.0264241 -0.072007 -0.00730789 -0.0325668 -0.0708595 -0.00342276 
-0.0384879 -0.0688128 0.00104153 -0.0024558 -0.0550526 -0.0434459 -0.000683974 -0.0584492 -0.0382438 
9.72675e-05 -0.0617035 -0.0336479 2.22342e-06 -0.0648321 -0.0295884 -0.00124228 -0.0675706 -0.0259277 
-0.00334888 -0.0700166 -0.022566 -0.00652446 -0.0718216 -0.0193762 -0.0103771 -0.0732206 -0.0162953 
-0.0150012 -0.0737876 -0.0131341 -0.0200351 -0.0739127 -0.00993032 -0.0253916 -0.0731196 -0.00639927 
-0.0308904 -0.0719214 -0.00272386 -0.036215 -0.0698252 0.00145877 -0.00540992 -0.0578242 -0.041417 
-0.00364699 -0.0608816 -0.0363195 -0.00276308 -0.0638433 -0.0318197 -0.00265677 -0.0667202 -0.0278488 
-0.00358263 -0.0692494 -0.0242735 -0.0052826 -0.0715179 -0.0209951 -0.00795467 -0.0731834 -0.0178963 
-0.0112424 -0.074467 -0.0149112 -0.0152491 -0.0749483 -0.0118724 -0.0196377 -0.0750034 -0.00880514 
-0.0243506 -0.0741564 -0.00546136 -0.0292065 -0.0729113 -0.0019956 -0.0339347 -0.0707709 0.00190485 
0.0549407 0.0140096 -0.0379802 0.053647 0.0110941 -0.0325884 0.0508057 0.00836204 -0.0267591 
0.0465954 0.00579238 -0.0205429 0.0406204 0.00326426 -0.014244 0.033322 0.000767298 -0.00788317 
0.0246067 -0.00181713 -0.00184687 0.0149941 -0.00445694 0.00398387 0.00483087 -0.00728365 0.00929109 
-0.00562489 -0.0102097 0.0143202 -0.015624 -0.0133944 0.0190312 -0.0254215 -0.0166933 0.0236018 
-0.0340663 -0.0202983 0.0284085 0.0512898 0.00735722 -0.0380782 0.0502481 0.00374203 -0.0324577 
0.0476168 0.000358958 -0.0265233 0.0435793 -0.00281881 -0.0203112 0.0377358 -0.00582099 -0.0141075 
0.0305378 -0.00869147 -0.00791004 0.0218849 -0.0114375 -0.00207203 0.0123106 -0.0141048 0.00353833 
0.0021452 -0.016709 0.00864363 -0.00833431 -0.0192796 0.0134806 -0.0183999 -0.0218735 0.0180421 
-0.028283 -0.0244775 0.0224819 -0.037047 -0.0271998 0.0271931 0.0472827 0.000392392 -0.038607 
0.0465003 -0.00389928 -0.0328081 0.0441053 -0.0079098 -0.0268177 0.0402838 -0.0116717 -0.020658 
0.0346344 -0.0151259 -0.0145883 0.0276139 -0.0183496 -0.00858625 0.0191123 -0.0212402 -0.00296168 
0.0096728 -0.0239199 0.0024238 -0.000399685 -0.0262893 0.00734213 -0.0108084 -0.0284938 0.0120123 
-0.0208588 -0.0304861 0.0164639 -0.030751 -0.0323848 0.0208191 -0.039574 -0.0342114 0.0254844 
0.0423926 -0.00676646 -0.0398162 0.041897 -0.0115308 -0.0339328 0.0398133 -0.0159776 -0.0279747 
0.0363247 -0.0201435 -0.0219505 0.0310361 -0.0239018 -0.0160796 0.0243976 -0.0273543 -0.0103235 
0.0162853 -0.0303132 -0.00493669 0.00723965 -0.0329595 0.000216232 -0.00247744 -0.035099 0.00496633 
-0.0125513 -0.0369693 0.00950245 -0.022347 -0.0384295 0.0138951 -0.0320201 -0.0397088 0.0182245 
-0.0407096 -0.0407419 0.0229038 0.0372761 -0.013975 -0.0412 0.0370745 -0.0191597 -0.035256 
0.0353212 -0.0239938 -0.0293528 0.0321954 -0.0285176 -0.0234857 0.0273105 -0.0325419 -0.0178299 
0.0211062 -0.0361915 -0.0123328 0.0134442 -0.0391991 -0.00718998 0.00485899 -0.0418001 -0.00227159 
-0.00443542 -0.043711 0.00231508 -0.0141066 -0.0452553 0.00672555 -0.0235864 -0.0462013 0.0110723 
-0.0329819 -0.0468833 0.015391 -0.0414883 -0.047149 0.0200998 0.0317605 -0.0208687 -0.0425336 
0.0318588 -0.0261822 -0.0365734 0.0304728 -0.031138 -0.0307568 0.0277739 -0.0357775 -0.0250672 
0.0233901 -0.0398732 -0.0196343 0.0177427 -0.0435612 -0.0143941 0.0106796 -0.0465261 -0.00948811 
0.00271989 -0.0490331 -0.00479391 -0.00597421 -0.0507394 -0.000365161 -0.0150585 -0.0520201 0.00392257 
-0.0240406 -0.0525739 0.00821573 -0.0329778 -0.052807 0.0125113 -0.0411338 -0.0524904 0.0172233 
0.0261671 -0.0277008 -0.0438574 0.0265665 -0.0330862 -0.0378896 0.025555 -0.0381121 -0.0321657 
0.0232954 -0.0428199 -0.0266577 0.0194317 -0.0469492 -0.0214493 0.014365 -0.0506445 -0.0164655 
0.00792982 -0.0535489 -0.011795 0.000627926 -0.0559524 -0.00732295 -0.00743122 -0.0574586 -0.00305105 
-0.0158927 -0.0584881 0.00111453 -0.0243416 -0.0586735 0.00535254 -0.0327851 -0.0584866 0.00962251 
-0.0405581 -0.0576239 0.0143328 0.0208066 -0.0339595 -0.0445223 0.021463 -0.0391154 -0.0385851 
0.0207996 -0.0439421 -0.0329695 0.0189688 -0.0484776 -0.0276382 0.0156335 -0.0524484 -0.0226357 
0.0111699 -0.0559958 -0.0178799 0.00540421 -0.0587485 -0.0134196 -0.00118611 -0.060998 -0.0091464 
-0.00853643 -0.062324 -0.00502742 -0.0162905 -0.0631595 -0.000990371 -0.0241047 -0.0630974 0.003159 
-0.0319455 -0.0626393 0.00735793 -0.0392193 -0.0614286 0.011997 0.0154785 -0.0401381 -0.0450951 
0.0163858 -0.0450226 -0.039194 0.016067 -0.0496126 -0.0336887 0.0146635 -0.0539421 -0.0285335 
0.0118577 -0.0577278 -0.0237345 0.00800025 -0.0611054 -0.0192027 0.00290986 -0.0636937 -0.014949 
-0.00296137 -0.065782 -0.0108714 -0.00959257 -0.0669307 -0.0069048 -0.0166275 -0.0675801 -0.00299716 
-0.0237928 -0.0672874 0.0010589 -0.0310155 -0.066579 0.00518044 -0.0377739 -0.0650479 0.00973863 
0.0109856 -0.0455955 -0.0446459 0.0120403 -0.0499775 -0.0388483 0.0119736 -0.0541254 -0.0334874 
0.010915 -0.0580661 -0.0285128 0.00856652 -0.0615191 -0.0239048 0.00525072 -0.0646063 -0.0195717 
0.000785322 -0.0669552 -0.0155015 -0.00440814 -0.0688364 -0.0115977 -0.0103388 -0.0698141 -0.00778123 
-0.0166611 -0.0703119 -0.00401105 -0.0231568 -0.0698771 -8.40937e-05 -0.0297291 -0.0690308 0.00391203 
-0.0359208 -0.0673424 0.00831795 0.00656688 -0.0509888 -0.0441059 0.00775979 -0.0548479 -0.0384177 
0.00793709 -0.0585353 -0.0332042 0.00721599 -0.062071 -0.0284107 0.00531843 -0.0651783 -0.0239925 
0.00253853 -0.0679643 -0.0198558 -0.00130635 -0.0700671 -0.0159671 -0.00582571 -0.071737 -0.0122353 
-0.0110575 -0.0725444 -0.00856869 -0.0166677 -0.0728936 -0.00493668 -0.0224921 -0.0723245 -0.00114201 
-0.028411 -0.0713503 0.00272443 -0.0340314 -0.0695191 0.00697173 0.00338356 -0.0535936 -0.0424688 
0.00457529 -0.0571357 -0.0369866 0.00486396 -0.0605434 -0.0319796 0.00435376 -0.0638321 -0.0273928 
0.0027851 -0.06673 -0.0231714 0.000422587 -0.0693347 -0.0192242 -0.0029109 -0.0712934 -0.0155088 
-0.00685933 -0.0728428 -0.0119405 -0.0114758 -0.0735615 -0.00842795 -0.016447 -0.0738387 -0.00494512 
-0.0216464 -0.0732172 -0.00131189 -0.0269464 -0.0721991 0.0023877 -0.032007 -0.0703287 0.00642588 
0.000252802 -0.0560798 -0.040785 0.00143742 -0.0593137 -0.035513 0.0018318 -0.0624492 -0.0307149 
0.00152714 -0.0654977 -0.0263359 0.000282178 -0.068192 -0.0223117 -0.00166799 -0.0706205 -0.0185535 
-0.00449473 -0.0724394 -0.0150113 -0.00787662 -0.0738723 -0.0116059 -0.0118813 -0.0745056 -0.00824771 
-0.0162168 -0.0747142 -0.00491453 -0.020793 -0.0740437 -0.00144398 -0.0254755 -0.0729852 0.00208719 
-0.0299768 -0.07108 0.00591409 0.0604842 0.0147256 -0.0328684 0.0597782 0.0121425 -0.0255074 
0.057339 0.00961707 -0.0175536 0.0533668 0.00714275 -0.00907512 0.0473847 0.00460117 -0.000709734 
0.0398951 0.00200915 0.00757085 0.0308059 -0.000737547 0.0149037 0.0207037 -0.0035822 0.0216363 
0.010064 -0.00663333 0.0270006 -0.000861263 -0.00979416 0.0316382 -0.0110946 -0.0132012 0.0352727 
-0.0210226 -0.016717 0.0384647 -0.0294432 -0.0205158 0.0416032 0.0571354 0.00723817 -0.032937 
0.0565572 0.00384429 -0.0253693 0.0542169 0.000560586 -0.0173381 0.0503177 -0.00262565 -0.00889692 
0.044393 -0.00572415 -0.000658582 0.0369491 -0.00875682 0.00742758 0.0278967 -0.011696 0.0145491 
0.0178256 -0.0145759 0.0210596 0.00719514 -0.0173718 0.0262465 -0.00373241 -0.0201231 0.0307302 
-0.0140086 -0.0228564 0.0342662 -0.0239975 -0.0255818 0.0373841 -0.0325218 -0.0283966 0.0404732 
0.0533736 -0.000466373 -0.0335725 0.0529286 -0.00463966 -0.0258883 0.0507155 -0.00865017 -0.0178691 
0.0469385 -0.0125167 -0.00955371 0.0411441 -0.0161443 -0.00151521 0.0338365 -0.0195927 0.00631558 
0.0249258 -0.0227062 0.0131962 0.0149999 -0.0256077 0.0194751 0.00449012 -0.0281415 0.0245119 
-0.00632977 -0.03048 0.0288888 -0.0165571 -0.0325395 0.032399 -0.026523 -0.0344759 0.0355268 
-0.0350901 -0.0363065 0.0386553 0.0486154 -0.00797502 -0.0351629 0.0483287 -0.0126881 -0.0275478 
0.0463239 -0.0171966 -0.019719 0.0427993 -0.0215241 -0.0117011 0.037322 -0.025499 -0.00400077 
0.0303804 -0.0292096 0.00346131 0.0218772 -0.032407 0.0100424 0.0123849 -0.0352792 0.0160655 
0.00228395 -0.0375705 0.0209872 -0.00814038 -0.0395533 0.0253239 -0.0180652 -0.0410489 0.0289165 
-0.0277697 -0.0423296 0.0321808 -0.0361894 -0.0433311 0.0354841 0.0436016 -0.0154334 -0.0369981 
0.0434797 -0.0206249 -0.0294998 0.0417039 -0.0255727 -0.021907 0.0384651 -0.0303048 -0.0142306 
0.0333531 -0.0345806 -0.00690401 0.0268364 -0.038514 0.000160299 0.0188086 -0.0417719 0.00642676 
0.00982399 -0.0446018 0.0121879 0.000205691 -0.0466557 0.0170036 -0.00974925 -0.0482973 0.021317 
-0.0193065 -0.0492573 0.0250198 -0.0286883 -0.0499166 0.0284531 -0.0369122 -0.0501287 0.0319658 
0.0381281 -0.022209 -0.0388679 0.0381851 -0.0275641 -0.0315694 0.0366858 -0.0326587 -0.0242796 
0.0338096 -0.0375228 -0.0169974 0.0291716 -0.0418778 -0.0100785 0.0232122 -0.0458509 -0.0034322 
0.0158147 -0.0490641 0.00250949 0.00750632 -0.0517962 0.0080049 -0.00145202 -0.0536447 0.0127106 
-0.0107556 -0.0550238 0.0169968 -0.0197682 -0.0555992 0.0208027 -0.0286523 -0.05582 0.0243967 
-0.0365208 -0.0554679 0.0281071 0.0325649 -0.0288512 -0.0407444 0.0328036 -0.0343085 -0.0336619 
0.0315899 -0.0394929 -0.0266881 0.0290914 -0.0444359 -0.0198104 0.0249485 -0.0488268 -0.013306 
0.0195725 -0.0528038 -0.00708156 0.0128354 -0.055952 -0.00146662 0.00523612 -0.0585753 0.00376231 
-0.00302766 -0.0602246 0.00835724 -0.0116445 -0.0613565 0.0126154 -0.0200777 -0.0615768 0.0165231 
-0.0284299 -0.0613949 0.0202762 -0.035912 -0.0605226 0.0241819 0.0271821 -0.0346658 -0.0419099 
0.0275813 -0.0399214 -0.0350713 0.0266463 -0.0449198 -0.0284171 0.024531 -0.0496907 -0.0219261 
0.0209004 -0.0539159 -0.0158084 0.0161332 -0.0577319 -0.00997072 0.0100929 -0.0607184 -0.00466202 
0.0032463 -0.0631797 0.000311629 -0.00426394 -0.0646526 0.00477422 -0.0121267 -0.0656005 0.00896532 
-0.0198954 -0.0655977 0.012905 -0.0276225 -0.0651755 0.0167338 -0.0346136 -0.0639966 0.0207369 
0.0218245 -0.0403648 -0.042976 0.0223812 -0.0453765 -0.0363852 0.0217239 -0.0501505 -0.0300513 
0.0199927 -0.0547141 -0.0239445 0.0168766 -0.0587455 -0.0182097 0.0127219 -0.0623775 -0.0127538 
0.00738353 -0.0651889 -0.0077485 0.0012956 -0.0674807 -0.00302856 -0.00545288 -0.0687804 0.00129867 
-0.0125523 -0.0695531 0.00541729 -0.0196445 -0.0693456 0.00937923 -0.0267335 -0.0687057 0.013272 
-0.0332189 -0.06725 0.0173588 0.0172191 -0.0452421 -0.042921 0.0178675 -0.049788 -0.0366028 
0.0174247 -0.0541385 -0.0305836 0.0160166 -0.0583162 -0.0248286 0.0133538 -0.0620098 -0.0194362 
0.00975017 -0.0653404 -0.0143156 0.00505727 -0.0679044 -0.00958697 -0.000325495 -0.0699828 -0.00510651 
-0.00634783 -0.0711168 -0.000938735 -0.01271 -0.0717491 0.00306293 -0.0191231 -0.0714242 0.00696577 
-0.0255587 -0.0706769 0.010825 -0.0314977 -0.0691037 0.0148796 0.0126806 -0.0500464 -0.0427663 
0.0134149 -0.0541067 -0.036723 0.0131809 -0.0580161 -0.0310179 0.0120903 -0.0617918 -0.0256119 
0.00987553 -0.065135 -0.0205583 0.00681755 -0.0681537 -0.0157689 0.00276505 -0.0704638 -0.0113145 
-0.0019173 -0.0723251 -0.00707226 -0.00721665 -0.0732941 -0.00306609 -0.0128438 -0.073789 0.000814672 
-0.0185776 -0.0733544 0.00465119 -0.0243585 -0.0725097 0.0084682 -0.0297474 -0.0708328 0.0124803 
0.00926467 -0.05234 -0.0414287 0.00998982 -0.0561055 -0.0357016 0.00986552 -0.0597474 -0.0303201 
0.00898979 -0.06328 -0.0252442 0.00711419 -0.0664133 -0.0205017 0.00448868 -0.069247 -0.0160092 
0.000964394 -0.0714104 -0.0118098 -0.00312911 -0.0731494 -0.0077961 -0.00780133 -0.0740326 -0.00397215 
-0.012781 -0.0744613 -0.000249021 -0.0178944 -0.0739856 0.00345544 -0.0230669 -0.0731108 0.00715167 
-0.0279227 -0.0714123 0.0110289 0.00589649 -0.0545268 -0.0400408 0.00660849 -0.0580055 -0.0346317 
0.00658968 -0.0613874 -0.0295742 0.00592439 -0.0646837 -0.0248275 0.00438334 -0.067613 -0.0203949 
0.00218549 -0.0702671 -0.0161978 -0.000815352 -0.0722885 -0.0122527 -0.00432475 -0.0739091 -0.00846709 
-0.00837392 -0.0747099 -0.00482625 -0.0127099 -0.0750754 -0.00126231 -0.0172054 -0.0745614 0.00230729 
-0.0217714 -0.0736596 0.0058794 -0.0260949 -0.0719428 0.00961772 0.0683274 0.0157755 -0.0274214 
0.0685069 0.0135693 -0.0177975 0.0665953 0.0112873 -0.00735755 0.0628338 0.00893824 0.00380438 
0.0565764 0.00640147 0.0146381 0.048447 0.0037239 0.0252256 0.0383501 0.000818267 0.0340758 
0.0270072 -0.00223179 0.0418257 0.0151411 -0.00550825 0.0471164 0.00299703 -0.00890498 0.0511006 
-0.00802824 -0.012539 0.0532338 -0.0185599 -0.0162776 0.0545503 -0.0269804 -0.0202887 0.0555196 
0.0652439 0.00712622 -0.0275845 0.0654231 0.00390225 -0.0178134 0.063496 0.000660349 -0.00736999 
0.0597057 -0.00259743 0.00366816 0.0534364 -0.00585084 0.0142892 0.0453081 -0.00910095 0.0245974 
0.0352397 -0.0122624 0.0331869 0.0239427 -0.0153676 0.040688 0.0121179 -0.0183307 0.0458302 
1.27904e-05 -0.0212182 0.0497192 -0.0110229 -0.0240241 0.0518464 -0.0215869 -0.026794 0.0531964 
-0.0301028 -0.0296308 0.0542167 0.0616416 -0.00162225 -0.0284674 0.0618224 -0.00582049 -0.0186885 
0.0599119 -0.00997899 -0.00838207 0.0561514 -0.0141024 0.00239093 0.0499616 -0.0180358 0.0126807 
0.04195 -0.0218269 0.0226079 0.0320454 -0.025225 0.0308861 0.020942 -0.0283742 0.0381198 
0.0093006 -0.0310259 0.043156 -0.00262654 -0.0334132 0.0470249 -0.0135624 -0.0354074 0.0492624 
-0.024061 -0.0372282 0.0507803 -0.0326099 -0.0389092 0.051992 0.0568153 -0.00966228 -0.0305603 
0.0570198 -0.0145285 -0.0210579 0.0552178 -0.0193055 -0.0111648 0.0516409 -0.0240035 -0.000925994 
0.0457555 -0.0283749 0.00881232 0.0381387 -0.0325013 0.0181752 0.028719 -0.0360216 0.0260438 
0.0181575 -0.039158 0.0329659 0.00704164 -0.0415475 0.0379469 -0.0043688 -0.0435402 0.0418967 