# vtk DataFile Version 2.0
vtk output
ASCII
DATASET RECTILINEAR_GRID
DIMENSIONS 13 13 13
X_COORDINATES 13 float
5 5.20833 5.41667 5.625 5.83333 6.04167 6.25 6.45833 6.66667 
6.875 7.08333 7.29167 7.5 
Y_COORDINATES 13 float
-7.5 -7.29167 -7.08333 -6.875 -6.66667 -6.45833 -6.25 -6.04167 -5.83333 
-5.625 -5.41667 -5.20833 -5 
Z_COORDINATES 13 float
7.5 7.70833 7.91667 8.125 8.33333 8.54167 8.75 8.95833 9.16667 
9.375 9.58333 9.79167 10 
POINT_DATA 2197
VECTORS grad float
-0.0442402 0.108209 -0.0391158 -0.0441781 0.1034 -0.0371391 -0.0436511 0.0989386 -0.0352464 
-0.0426521 0.0948686 -0.0334365 -0.0412686 0.091117 -0.0316941 -0.039509 0.0877394 -0.030118 
-0.0374902 0.0846197 -0.0286565 -0.0352913 0.0818032 -0.027505 -0.0329878 0.0791626 -0.0265334 
-0.0307728 0.0767286 -0.0259877 -0.0286008 0.0743948 -0.0256484 -0.0267828 0.0721875 -0.0257331 
-0.0251064 0.0700307 -0.0259874 -0.049356 0.111988 -0.0425215 -0.0489396 0.106961 -0.0406194 
-0.048049 0.102259 -0.0388312 -0.0466926 0.0979557 -0.0371215 -0.0449567 0.0939774 -0.0354758 
-0.0428789 0.0904004 -0.0339595 -0.0405651 0.0871001 -0.0325323 -0.0381265 0.0841332 -0.0313542 
-0.0356153 0.0813599 -0.0303207 -0.0332484 0.0788142 -0.029646 -0.0309515 0.0763788 -0.0291451 
-0.0290469 0.0740779 -0.029018 -0.0272991 0.0718309 -0.0290404 -0.0545941 0.115953 -0.0459326 
-0.0538443 0.110684 -0.0441288 -0.0525987 0.105711 -0.0424641 -0.0508837 0.101144 -0.0408654 
-0.0487862 0.0969075 -0.0393205 -0.0463761 0.0931039 -0.0378598 -0.0437504 0.0895986 -0.036457 
-0.0410558 0.0864622 -0.0352379 -0.0383212 0.08354 -0.0341255 -0.0357907 0.0808714 -0.0333052 
-0.0333592 0.0783256 -0.0326265 -0.0313623 0.0759261 -0.0322752 -0.0295393 0.0735851 -0.0320548 
-0.0601377 0.12038 -0.0493576 -0.0591071 0.114811 -0.047711 -0.0575282 0.109491 -0.0462171 
-0.0554513 0.104583 -0.0447564 -0.0529686 0.100012 -0.0433228 -0.0501915 0.0959141 -0.0419073 
-0.0472114 0.0921425 -0.0405044 -0.0442205 0.0887887 -0.0392081 -0.0412233 0.0856775 -0.037974 
-0.0384998 0.0828579 -0.0369668 -0.035909 0.0801796 -0.0360697 -0.0338062 0.0776685 -0.0354633 
-0.0318985 0.0752242 -0.034973 -0.0658734 0.125342 -0.0526749 -0.0646029 0.119427 -0.0512251 
-0.0627082 0.113709 -0.0499327 -0.0602686 0.108412 -0.0486264 -0.0573851 0.103459 -0.0473088 
-0.054218 0.0990262 -0.0459297 -0.0508552 0.0949514 -0.0445083 -0.0475412 0.0913478 -0.0431106 
-0.0442557 0.0880178 -0.0417267 -0.0413195 0.0850201 -0.0405081 -0.0385527 0.0821834 -0.0393696 
-0.0363331 0.0795369 -0.0384937 -0.0343323 0.0769665 -0.0377229 -0.0720052 0.131405 -0.0557698 
-0.0705796 0.125051 -0.0545987 -0.0684046 0.11883 -0.0535711 -0.0656007 0.113045 -0.052453 
-0.0622844 0.107614 -0.0512612 -0.0586796 0.102761 -0.0499002 -0.0548758 0.0983068 -0.0484226 
-0.0511839 0.0943865 -0.0468732 -0.0475569 0.0907764 -0.0452821 -0.0443673 0.0875446 -0.0438013 
-0.0413899 0.0844963 -0.0423739 -0.0390313 0.0816655 -0.0411992 -0.0369203 0.0789216 -0.0401255 
-0.0784647 0.138548 -0.0585545 -0.0769434 0.131672 -0.0577256 -0.0745077 0.124865 -0.0570134 
-0.0713329 0.118518 -0.0561133 -0.0675558 0.112546 -0.0550601 -0.0634778 0.107216 -0.0537101 
-0.0591923 0.10233 -0.0521555 -0.0550867 0.0980412 -0.0504253 -0.0510855 0.0941001 -0.0485933 
-0.0476183 0.0905813 -0.0468221 -0.0444098 0.0872674 -0.0450806 -0.0418979 0.0841976 -0.0435945 
-0.0396646 0.0812254 -0.0422106 -0.0854885 0.147553 -0.0608047 -0.0839737 0.140008 -0.0604275 
-0.0813112 0.132474 -0.0601182 -0.0777541 0.125441 -0.0594873 -0.0734681 0.118815 -0.0585945 
-0.0688558 0.11291 -0.0572433 -0.0640183 0.107502 -0.0555759 -0.0594376 0.102757 -0.053615 
-0.0550059 0.0983971 -0.0514838 -0.051219 0.0945001 -0.0493741 -0.0477446 0.0908273 -0.0472748 
-0.0450544 0.0874245 -0.0454558 -0.0426779 0.0841298 -0.043749 -0.0931018 0.158285 -0.0623774 
-0.0916502 0.149922 -0.0625418 -0.088758 0.14154 -0.0627102 -0.0847883 0.133728 -0.0623992 
-0.0799409 0.12638 -0.0616975 -0.0747428 0.119838 -0.0603532 -0.069303 0.113852 -0.0585656 
-0.0642095 0.108585 -0.0563583 -0.059317 0.103737 -0.0539073 -0.0551893 0.0993786 -0.0514448 
-0.0514324 0.0952574 -0.0489767 -0.0485485 0.0914262 -0.0468273 -0.0460138 0.0877109 -0.0448052 
-0.10157 0.171521 -0.0629675 -0.100264 0.162124 -0.063804 -0.0971376 0.152719 -0.0645589 
-0.0927116 0.143993 -0.0646411 -0.0872263 0.135822 -0.064175 -0.0813681 0.128554 -0.0628493 
-0.0752527 0.12191 -0.0609309 -0.0695917 0.116028 -0.0584542 -0.0641944 0.11059 -0.0556534 
-0.0596954 0.105649 -0.0528177 -0.055632 0.100949 -0.0499651 -0.052532 0.096551 -0.0474885 
-0.0498175 0.0922733 -0.0451622 -0.111113 0.186873 -0.0622941 -0.109936 0.176201 -0.0639262 
-0.106479 0.165631 -0.0653732 -0.101494 0.155922 -0.0659327 -0.0952653 0.146914 -0.0657689 
-0.0886746 0.138915 -0.0645125 -0.0818346 0.131611 -0.0625025 -0.0755864 0.125079 -0.0597887 
-0.0696818 0.118995 -0.0566663 -0.0648146 0.113376 -0.0534857 -0.0604504 0.107982 -0.0502769 
-0.057127 0.102878 -0.0475051 -0.0542199 0.0978912 -0.0449081 -0.121978 0.204821 -0.0600698 
-0.120907 0.192581 -0.0626493 -0.117 0.180673 -0.0649181 -0.111332 0.169893 -0.0660581 
-0.104229 0.160032 -0.0662784 -0.0968175 0.151294 -0.0651533 -0.0891925 0.14333 -0.0631002 
-0.0823329 0.136104 -0.060189 -0.0759177 0.129307 -0.0567794 -0.070686 0.12289 -0.0532886 
-0.0660283 0.116658 -0.0497584 -0.0624723 0.110681 -0.0467308 -0.0593571 0.104805 -0.0439041 
-0.134743 0.224202 -0.055909 -0.133506 0.21012 -0.0596566 -0.128786 0.196843 -0.0629295 
-0.122152 0.185095 -0.0648108 -0.113959 0.174592 -0.065558 -0.105628 0.165318 -0.0646976 
-0.0972038 0.15689 -0.0627284 -0.0897842 0.149069 -0.0597295 -0.0829482 0.1416 -0.0561326 
-0.0774351 0.134322 -0.0524065 -0.0725634 0.127137 -0.0486176 -0.0688046 0.12011 -0.0453778 
-0.065491 0.113147 -0.0423577 -0.0423261 0.10457 -0.042274 -0.042357 0.0997385 -0.0404599 
-0.0419021 0.0952324 -0.0387129 -0.0409844 0.0911246 -0.0370255 -0.0396896 0.0873415 -0.0353868 
-0.0380582 0.0839656 -0.0338684 -0.0361945 0.0808705 -0.032433 -0.034197 0.0781266 -0.0312304 
-0.0321219 0.0755866 -0.0301629 -0.0301545 0.0733011 -0.0294268 -0.0282394 0.071139 -0.0288513 
-0.0266507 0.0691357 -0.0286236 -0.0251926 0.067196 -0.028535 -0.0474672 0.108176 -0.0461943 
-0.0471668 0.103085 -0.0444237 -0.046353 0.0983033 -0.0427391 -0.045067 0.0939403 -0.0410989 
-0.0433962 0.0899189 -0.0394951 -0.0414132 0.0863463 -0.0379694 -0.0392147 0.0830833 -0.0364975 
-0.036936 0.0802123 -0.0352031 -0.0346108 0.0775687 -0.0340115 -0.032456 0.0752041 -0.0330999 
-0.0303838 0.0729746 -0.0323239 -0.0286887 0.0709095 -0.0318634 -0.0271444 0.0689102 -0.0315292 
-0.0527589 0.111995 -0.0502127 -0.0521429 0.106616 -0.0485132 -0.050972 0.101525 -0.046913 
-0.0493086 0.0968751 -0.0453322 -0.047244 0.0925851 -0.0437673 -0.044888 0.0887917 -0.0422278 
-0.042331 0.0853408 -0.0407058 -0.0397508 0.0823283 -0.0392994 -0.0371572 0.0795703 -0.03796 
-0.0348031 0.0771191 -0.0368486 -0.0325651 0.0748167 -0.0358477 -0.0307604 0.0726858 -0.0351341 
-0.029129 0.0706235 -0.0345354 -0.058427 0.116347 -0.0544769 -0.0575351 0.110609 -0.0529171 
-0.0560113 0.105124 -0.0514563 -0.0539478 0.100107 -0.0499651 -0.0514445 0.0954737 -0.0484492 
-0.0486622 0.091399 -0.0468797 -0.0456876 0.0877099 -0.0452734 -0.0427553 0.0845201 -0.0437047 
-0.0398476 0.0816203 -0.042158 -0.0372645 0.0790644 -0.0407864 -0.0348387 0.0766751 -0.0394997 
-0.0329166 0.0744684 -0.0384818 -0.0311958 0.0723347 -0.0375715 -0.064336 0.121283 -0.0588018 
-0.0631994 0.115132 -0.0574294 -0.0613273 0.109195 -0.0561456 -0.058849 0.103761 -0.0547634 
-0.0558768 0.0987351 -0.0533012 -0.0526329 0.0943395 -0.0516879 -0.0492017 0.0903782 -0.0499706 
-0.0458849 0.0869828 -0.0482037 -0.0426346 0.0839159 -0.0464081 -0.0398044 0.0812312 -0.0447371 
-0.037178 0.0787318 -0.0431267 -0.0351332 0.0764261 -0.0417762 -0.033321 0.0741979 -0.0405298 
-0.0707417 0.127422 -0.0632521 -0.0694247 0.120749 -0.0621652 -0.0672141 0.114243 -0.0611357 
-0.0642909 0.108282 -0.0599027 -0.0607871 0.102765 -0.0585039 -0.0570086 0.097967 -0.0568184 
-0.0530406 0.0936638 -0.0549353 -0.0492726 0.090004 -0.0528958 -0.0456209 0.0867177 -0.0507654 
-0.0425065 0.083855 -0.0487144 -0.0396525 0.0811976 -0.046702 -0.0374744 0.0787451 -0.0449606 
-0.0355667 0.0763746 -0.0433276 -0.0775497 0.134743 -0.0676635 -0.0760977 0.127456 -0.0669364 
-0.07355 0.120291 -0.066222 -0.0701552 0.113725 -0.0651713 -0.0660702 0.107649 -0.0638465 
-0.0617037 0.102387 -0.0620705 -0.0571429 0.0976874 -0.0599835 -0.0528808 0.0937095 -0.0576203 
-0.0487922 0.0901508 -0.0550969 -0.0453726 0.0870541 -0.052614 -0.0422775 0.0841812 -0.0501507 
-0.0399603 0.0815232 -0.0479855 -0.0379542 0.0789512 -0.0459394 -0.0850503 0.144099 -0.0720077 
-0.0835416 0.13604 -0.0717686 -0.0806594 0.128061 -0.071474 -0.076747 0.120757 -0.0706625 
-0.0719953 0.114002 -0.0694299 -0.0669488 0.108173 -0.0675321 -0.061699 0.102982 -0.0651754 
-0.0568687 0.0985935 -0.062401 -0.0522819 0.0946711 -0.059384 -0.0485214 0.0912438 -0.0563797 
-0.0451615 0.0880565 -0.0533816 -0.0426951 0.085092 -0.0507357 -0.040586 0.0822168 -0.0482306 
-0.0932334 0.155369 -0.0760506 -0.0917104 0.146388 -0.0763919 -0.0884718 0.137472 -0.0765967 
-0.08399 0.129329 -0.076073 -0.0784953 0.121816 -0.0749557 -0.0726984 0.115344 -0.0729257 
-0.0666931 0.109589 -0.0702663 -0.0612495 0.104707 -0.0670353 -0.056132 0.100332 -0.0634724 
-0.0520136 0.0964735 -0.0599043 -0.0483794 0.0928657 -0.0563336 -0.0457569 0.0894868 -0.0531867 
-0.0435389 0.0861993 -0.0502094 -0.102406 0.169417 -0.0796566 -0.10093 0.159292 -0.0807122 
-0.0973036 0.149258 -0.0815321 -0.0921772 0.140133 -0.0813664 -0.0858289 0.131747 -0.0803978 
-0.0791795 0.124523 -0.0782209 -0.0723222 0.1181 -0.0752107 -0.0662001 0.112604 -0.0714575 
-0.0605048 0.107646 -0.067273 -0.0560037 0.103211 -0.0630794 -0.0520816 0.0990293 -0.0588814 
-0.0492928 0.0950791 -0.055204 -0.0469573 0.0912216 -0.0517349 -0.112752 0.185833 -0.0824301 
-0.111297 0.17432 -0.0842778 -0.107173 0.163022 -0.085784 -0.101288 0.152828 -0.0860342 
-0.0939682 0.143533 -0.0852611 -0.0863841 0.13552 -0.0829702 -0.0786177 0.12839 -0.0796326 
-0.0717919 0.122205 -0.075376 -0.0655122 0.11657 -0.0705858 -0.0606296 0.111432 -0.0657843 
-0.0564244 0.106534 -0.0609773 -0.053462 0.101861 -0.0567895 -0.0509967 0.097278 -0.0528496 
-0.124538 0.205156 -0.0841819 -0.12307 0.191953 -0.0869171 -0.118315 0.179211 -0.0891972 
-0.111532 0.167844 -0.0899342 -0.103096 0.157598 -0.089414 -0.094477 0.148748 -0.0870496 
-0.085731 0.140861 -0.0834134 -0.0781706 0.133897 -0.0786764 -0.0712987 0.127468 -0.0733002 
-0.066036 0.121472 -0.0679122 -0.0615536 0.115686 -0.0625185 -0.0584084 0.110104 -0.0578451 
-0.0557982 0.104603 -0.0534599 -0.138363 0.226069 -0.0844307 -0.136597 0.210853 -0.0881093 
-0.130843 0.196592 -0.0912148 -0.122882 0.184108 -0.0925174 -0.113122 0.173072 -0.092351 
-0.103374 0.163535 -0.0900454 -0.093633 0.155033 -0.0862646 -0.0853782 0.147346 -0.0811975 
-0.0779859 0.140132 -0.0753835 -0.0724039 0.133203 -0.0695214 -0.0676996 0.126412 -0.0636361 
-0.0643827 0.119763 -0.058535 -0.0616208 0.11317 -0.0537477 -0.0404981 0.100699 -0.0453029 
-0.0406121 0.0958612 -0.0436559 -0.04022 0.0913311 -0.042053 -0.039371 0.0872116 -0.0404812 
-0.0381497 0.0834269 -0.0389347 -0.0366246 0.0800846 -0.0374619 -0.03489 0.0770474 -0.0360397 
-0.0330624 0.0744066 -0.0347798 -0.031181 0.0719959 -0.0336142 -0.029428 0.0698799 -0.0326981 
-0.0277372 0.0679069 -0.0319031 -0.026355 0.0661166 -0.0313902 -0.0250962 0.0643992 -0.0309902 
-0.0456512 0.104068 -0.0497339 -0.0454511 0.0989278 -0.0481045 -0.0446997 0.0940861 -0.0465276 
-0.0434671 0.0896895 -0.0449566 -0.0418426 0.0856558 -0.0433903 -0.0399311 0.0821219 -0.0418501 
-0.0378217 0.0789329 -0.0403277 -0.035674 0.0761922 -0.038916 -0.0335042 0.073712 -0.0375685 
-0.0315338 0.0715547 -0.0364315 -0.02966 0.069554 -0.0353966 -0.0281572 0.0677386 -0.034627 
-0.0268029 0.0659974 -0.0339635 -0.0509853 0.107667 -0.0543581 -0.0504815 0.10219 -0.0527775 
-0.0493646 0.0969984 -0.0512515 -0.0477308 0.0922914 -0.0496941 -0.0456758 0.0879791 -0.0481112 
-0.0433484 0.0842324 -0.0464939 -0.0408332 0.080876 -0.0448529 -0.0383405 0.0780267 -0.0432627 
-0.0358609 0.0754719 -0.041702 -0.0336606 0.0732707 -0.0403119 -0.0315958 0.0712408 -0.0390046 
-0.0299718 0.0693987 -0.0379499 -0.0285241 0.0676317 -0.0369964 -0.056772 0.11184 -0.0594653 
-0.0559899 0.10594 -0.0580116 -0.054493 0.100304 -0.0565983 -0.0524139 0.0952034 -0.0550868 
-0.0498603 0.0905385 -0.0534953 -0.0470432 0.086526 -0.0517768 -0.0440443 0.0829635 -0.0499709 
-0.041144 0.0799833 -0.0481358 -0.0383008 0.0773413 -0.0462838 -0.03584 0.0750897 -0.04456 
-0.0335644 0.0730274 -0.0428985 -0.0318171 0.0711539 -0.0414882 -0.0302812 0.069356 -0.0401784 
-0.0628518 0.116631 -0.0648088 -0.0618123 0.110247 -0.0635373 -0.0599264 0.104102 -0.062281 
-0.0573722 0.0985517 -0.0608371 -0.0542734 0.0934849 -0.0592406 -0.0509172 0.0891688 -0.0574008 
-0.0473836 0.0853704 -0.0553932 -0.0440366 0.0822359 -0.0532636 -0.0407978 0.079487 -0.0510633 
-0.0380595 0.0771655 -0.0489511 -0.0355638 0.0750512 -0.0468817 -0.0336939 0.0731248 -0.0450732 
-0.0320743 0.0712735 -0.043369 -0.0695363 0.122697 -0.0706392 -0.068282 0.115702 -0.0696644 
-0.0659889 0.108916 -0.0686561 -0.0628983 0.1028 -0.0673251 -0.0591579 0.0972295 -0.065731 
-0.0551611 0.0925319 -0.063728 -0.0509874 0.0884359 -0.0614429 -0.047113 0.0850989 -0.0589167 
-0.0434123 0.0822025 -0.0562506 -0.0403619 0.0797709 -0.053637 -0.0376267 0.0775646 -0.051049 
-0.0356353 0.0755405 -0.0487546 -0.0339416 0.0735894 -0.0465777 -0.076701 0.130029 -0.0767169 
-0.075263 0.122325 -0.0761247 -0.0725447 0.114802 -0.0754358 -0.068869 0.108038 -0.0742534 
-0.0644133 0.101892 -0.0726687 -0.0597023 0.0967493 -0.0704704 -0.0548152 0.0922997 -0.0678489 
-0.0503616 0.088705 -0.0648497 -0.0461598 0.0856069 -0.0616312 -0.0427797 0.0830066 -0.0584379 
-0.0397981 0.0806477 -0.0552569 -0.0376885 0.0784637 -0.0524224 -0.0359277 0.0763496 -0.0497265 
-0.0846926 0.13954 -0.0832205 -0.0831243 0.13096 -0.0831587 -0.0799502 0.122537 -0.082912 
-0.0756056 0.114982 -0.0819399 -0.0703073 0.108133 -0.0803766 -0.0647555 0.102438 -0.0779278 
-0.0590288 0.0975382 -0.0748683 -0.0539068 0.0935911 -0.0712645 -0.049136 0.0901973 -0.0673445 
-0.0453962 0.0873277 -0.0634368 -0.0421563 0.0847122 -0.059535 -0.039934 0.0822609 -0.0560669 
-0.0381187 0.0798752 -0.0527724 -0.093457 0.151142 -0.089823 -0.0917871 0.141539 -0.0903863 
-0.0881162 0.132093 -0.0906665 -0.0830282 0.123643 -0.0899497 -0.0767857 0.116006 -0.0884203 
-0.0703016 0.109669 -0.0856878 -0.0636509 0.104229 -0.0821255 -0.0578072 0.0998259 -0.0778366 
-0.0524321 0.0960258 -0.0731257 -0.0483195 0.092767 -0.0684289 -0.0448191 0.0897708 -0.0637391 
-0.0424861 0.0869303 -0.0595935 -0.04062 0.0841521 -0.0556658 -0.103342 0.165775 -0.0965686 
-0.101612 0.154936 -0.0978948 -0.0973848 0.144289 -0.0988245 -0.0914455 0.134796 -0.0984281 
-0.0841113 0.126243 -0.0969511 -0.0765624 0.119135 -0.0938867 -0.0688655 0.113024 -0.0897275 
-0.0622226 0.108016 -0.0846368 -0.0561918 0.10365 -0.0790052 -0.0516877 0.0998279 -0.0734114 
-0.0479238 0.0962707 -0.0678359 -0.0454828 0.0928644 -0.0629492 -0.043571 0.0895185 -0.058338 
-0.114472 0.183023 -0.102936 -0.11265 0.170713 -0.105049 -0.10775 0.158726 -0.106658 
-0.100839 0.148097 -0.106607 -0.0922869 0.138573 -0.105203 -0.083584 0.130623 -0.101815 
-0.0747768 0.123758 -0.0970602 -0.0673047 0.118026 -0.0911682 -0.0606078 0.112951 -0.0846162 
-0.0557106 0.108405 -0.078131 -0.051686 0.104115 -0.0716781 -0.0491285 0.0999739 -0.0660603 
-0.0471578 0.0958926 -0.0607765 -0.127129 0.203482 -0.108838 -0.125176 0.189411 -0.111767 
-0.119463 0.175912 -0.114094 -0.111429 0.164032 -0.114419 -0.101506 0.153473 -0.113113 
-0.0915392 0.144593 -0.109413 -0.0815432 0.136872 -0.104063 -0.073205 0.130268 -0.0973698 
-0.0658293 0.124312 -0.0898976 -0.0605371 0.118842 -0.0825278 -0.0562552 0.113609 -0.0752077 
-0.0535705 0.108526 -0.0688712 -0.0515246 0.103503 -0.0629281 -0.141887 0.225676 -0.113678 
-0.139521 0.209495 -0.117284 -0.13264 0.194387 -0.120222 -0.123224 0.181277 -0.120899 
-0.111744 0.169797 -0.119734 -0.100435 0.160082 -0.115846 -0.0892443 0.151585 -0.110079 
-0.080072 0.144116 -0.102779 -0.0720719 0.137244 -0.0945892 -0.0664203 0.130757 -0.0864929 
-0.0619075 0.124456 -0.0784422 -0.059083 0.118286 -0.0714689 -0.056934 0.112167 -0.0649265 
-0.038958 0.0961756 -0.0476221 -0.0391021 0.09136 -0.0461279 -0.0387243 0.0868469 -0.0446503 
-0.0378921 0.0827689 -0.043174 -0.0366899 0.0790454 -0.0416989 -0.0352096 0.0758064 -0.0402583 
-0.0335375 0.0729015 -0.0388415 -0.0318094 0.0704349 -0.0375361 -0.0300488 0.0682228 -0.0362955 
-0.0284434 0.0663331 -0.0352493 -0.0269132 0.0645996 -0.0342974 -0.025692 0.063056 -0.0335829 
-0.0245942 0.0615884 -0.0329636 -0.0441032 0.0991033 -0.0524571 -0.0439357 0.0939365 -0.0509622 
-0.0431837 0.0890729 -0.0494843 -0.0419409 0.0846975 -0.0479749 -0.040298 0.08072 -0.0464399 
-0.0383909 0.0773053 -0.0448879 -0.0363016 0.0742786 -0.0433242 -0.0342176 0.0717565 -0.0418226 
-0.0321365 0.0695274 -0.0403571 -0.0302935 0.0676522 -0.0390552 -0.0285658 0.0659485 -0.0378328 
-0.0272215 0.0644322 -0.0368416 -0.0260306 0.0629908 -0.0359429 -0.0494657 0.102234 -0.0575703 
-0.0489894 0.096673 -0.0561088 -0.0478475 0.0914141 -0.0546573 -0.0461647 0.0867053 -0.0531277 
-0.0440413 0.0824446 -0.0515345 -0.0416667 0.0788376 -0.0498574 -0.0391189 0.0756814 -0.0481227 
-0.0366475 0.0731044 -0.0463913 -0.0342204 0.0708637 -0.0446618 -0.032127 0.0690096 -0.0430646 
-0.0301953 0.0673429 -0.0415316 -0.0287307 0.0658579 -0.0402288 -0.027453 0.0644455 -0.0390183 
-0.0553718 0.105872 -0.063379 -0.0545937 0.0998094 -0.0620361 -0.0530219 0.0940435 -0.060678 
-0.0508264 0.0889108 -0.0591604 -0.0481225 0.0842942 -0.0575126 -0.0451787 0.0804537 -0.0556765 
-0.0420693 0.0771484 -0.0537104 -0.0391321 0.0745178 -0.0516655 -0.0362949 0.072279 -0.0495747 
-0.0339191 0.0704626 -0.0475828 -0.0317672 0.0688509 -0.0456388 -0.030189 0.0674072 -0.0439377 
-0.0288403 0.0660306 -0.0423339 -0.061637 0.110096 -0.0695919 -0.0605647 0.103458 -0.0684318 
-0.0585355 0.0971102 -0.0672189 -0.0557755 0.0914929 -0.0657372 -0.0524201 0.0864711 -0.0640362 
-0.0488366 0.082366 -0.0620117 -0.0450959 0.0788931 -0.059764 -0.0416437 0.0761991 -0.0573394 
-0.038359 0.0739573 -0.0548122 -0.0356863 0.0721709 -0.0523538 -0.0333104 0.0706052 -0.0499288 
-0.0316278 0.0691876 -0.0477737 -0.0302224 0.067829 -0.0457265 -0.068643 0.11553 -0.0766385 
-0.0672922 0.108165 -0.0757937 -0.0647488 0.101079 -0.0748328 -0.0613178 0.0948516 -0.0734362 
-0.0571637 0.0893227 -0.0716847 -0.0527955 0.084889 -0.0694115 -0.0482798 0.0812105 -0.0667784 
-0.0442111 0.0784327 -0.0638379 -0.0404019 0.0761778 -0.060719 -0.0374021 0.0744057 -0.0576463 
-0.0347947 0.0728677 -0.054596 -0.0330263 0.0714445 -0.0518718 -0.0315935 0.0700673 -0.049278 
-0.07623 0.122237 -0.0842297 -0.074614 0.114042 -0.0838063 -0.0715104 0.106118 -0.083188 
-0.0673244 0.0991935 -0.0819187 -0.0622566 0.0930847 -0.0801191 -0.0569958 0.0882648 -0.0775442 
-0.051602 0.0843337 -0.0744345 -0.0468513 0.0814259 -0.0708647 -0.042474 0.0791123 -0.0670276 
-0.0391369 0.0773006 -0.0632285 -0.0363041 0.0757323 -0.0594479 -0.0344688 0.0742406 -0.0560777 
-0.0330324 0.0727796 -0.0528716 -0.0848178 0.131138 -0.0927588 -0.0829591 0.121937 -0.0929393 
-0.0792163 0.112997 -0.0928199 -0.0741307 0.105228 -0.0917504 -0.0679509 0.0984143 -0.0899069 
-0.0616117 0.093109 -0.0869391 -0.0551623 0.0888444 -0.0831959 -0.0496168 0.0857273 -0.0788012 
-0.0445961 0.0832764 -0.0740282 -0.0409043 0.0813324 -0.0693098 -0.0378569 0.079634 -0.0646178 
-0.0359868 0.0779652 -0.060469 -0.0345878 0.0763082 -0.0565373 -0.0942793 0.14227 -0.101828 
-0.0921929 0.131947 -0.102735 -0.0877426 0.121894 -0.103231 -0.0816437 0.113189 -0.102415 
-0.0742017 0.105584 -0.10053 -0.066653 0.0996957 -0.0970964 -0.0590307 0.0949909 -0.0925937 
-0.0526254 0.0915376 -0.0872294 -0.0469268 0.088811 -0.0813648 -0.0428806 0.0865872 -0.0756024 
-0.0396355 0.0846073 -0.0698896 -0.0377514 0.0826182 -0.0648899 -0.0364117 0.0806254 -0.0601754 
-0.105008 0.156636 -0.111679 -0.102715 0.145025 -0.113491 -0.0974582 0.133715 -0.114771 
-0.0901816 0.123943 -0.114287 -0.0812591 0.115423 -0.112366 -0.0723112 0.108809 -0.108359 
-0.0633456 0.103509 -0.102914 -0.0559863 0.099536 -0.0963705 -0.0495597 0.0963326 -0.0891888 
-0.0451595 0.0936155 -0.0822016 -0.0417418 0.0911341 -0.0753089 -0.0398735 0.0886173 -0.0693536 
-0.0386251 0.0860862 -0.0637733 -0.116955 0.173913 -0.121616 -0.114434 0.160883 -0.124333 
-0.108263 0.148263 -0.126419 -0.099688 0.13737 -0.126273 -0.0891536 0.127885 -0.124308 
-0.0787128 0.120432 -0.119692 -0.0683365 0.11438 -0.113246 -0.059996 0.109679 -0.105472 
-0.0528375 0.105763 -0.0969262 -0.0480878 0.102313 -0.0886917 -0.0445062 0.0990895 -0.080608 
-0.0426477 0.095832 -0.0736965 -0.0414784 0.092561 -0.0672539 -0.130397 0.194764 -0.13166 
-0.127621 0.180153 -0.135281 -0.120405 0.166156 -0.138199 -0.110383 0.154079 -0.138399 
-0.0980753 0.143568 -0.136384 -0.0860268 0.135136 -0.131111 -0.0741571 0.128138 -0.123591 
-0.0648018 0.122454 -0.114523 -0.0569064 0.117534 -0.104558 -0.0518131 0.113058 -0.095048 
-0.0480784 0.108798 -0.0857596 -0.046222 0.104539 -0.0778911 -0.045117 0.10028 -0.0705905 
-0.145604 0.21755 -0.140899 -0.142354 0.20114 -0.145057 -0.133834 0.18577 -0.148502 
-0.122212 0.172569 -0.148896 -0.108063 0.161136 -0.146804 -0.094416 0.151751 -0.140998 
-0.081115 0.14378 -0.132632 -0.0707988 0.137011 -0.122538 -0.0622157 0.130939 -0.111442 
-0.056783 0.125265 -0.100888 -0.0528778 0.119783 -0.0905979 -0.0509694 0.114349 -0.0818975 
-0.0498599 0.108934 -0.0738332 -0.0374917 0.0914849 -0.0497593 -0.0376525 0.0866988 -0.0484143 
-0.0372763 0.0822133 -0.0470571 -0.0364477 0.0781903 -0.0456713 -0.0352506 0.0745442 -0.044262 
-0.0337994 0.0714263 -0.0428503 -0.0321728 0.0686727 -0.0414368 -0.0305261 0.0663986 -0.0400891 
-0.0288676 0.064403 -0.0387795 -0.0273926 0.0627539 -0.0376158 -0.0260067 0.0612729 -0.036523 
-0.0249347 0.0599848 -0.0356285 -0.0239883 0.0587739 -0.0348133 -0.0426238 0.0939188 -0.054971 
-0.0424715 0.0887313 -0.0536089 -0.0417031 0.0838556 -0.0522276 -0.0404336 0.0795155 -0.050778 
-0.0387558 0.0756118 -0.0492727 -0.036836 0.0723367 -0.0477097 -0.0347491 0.0694952 -0.0461069 
-0.0327112 0.0672142 -0.0445224 -0.0307018 0.0652588 -0.0429486 -0.0289716 0.0636848 -0.0414974 
-0.0273766 0.0622958 -0.0401057 -0.0261821 0.0610911 -0.0389153 -0.0251478 0.0599602 -0.0378056 
-0.0480112 0.096518 -0.0605433 -0.0475408 0.0908767 -0.0592008 -0.0463535 0.0855586 -0.057824 
-0.0446016 0.0808621 -0.0563233 -0.0423897 0.0766721 -0.0547216 -0.0399486 0.0732286 -0.0529895 
-0.0373492 0.0702997 -0.0511675 -0.0348821 0.0680229 -0.0493058 -0.0324918 0.0661248 -0.047421 
-0.0304931 0.0646428 -0.0456351 -0.0286842 0.0633625 -0.043897 -0.0273736 0.062252 -0.0423701 
-0.0262624 0.0612094 -0.0409275 -0.0540368 0.0995299 -0.067017 -0.0532357 0.0933042 -0.0657861 
-0.0515629 0.0874131 -0.0644853 -0.049225 0.0822621 -0.0629651 -0.0463454 0.0777143 -0.0612662 
-0.0432513 0.0740739 -0.0593203 -0.0400092 0.0710593 -0.0572042 -0.0370175 0.0688142 -0.0549639 
-0.0341711 0.067016 -0.0526516 -0.031871 0.0656683 -0.050413 -0.0298359 0.0645389 -0.0482101 
-0.0284253 0.0635496 -0.0462444 -0.0272645 0.0626163 -0.0443736 -0.0604912 0.103079 -0.0740612 
-0.059353 0.0961822 -0.0730151 -0.0571472 0.0896312 -0.0718499 -0.0541481 0.0839598 -0.0703362 
-0.0505027 0.0790049 -0.0685386 -0.0466624 0.0751446 -0.0663401 -0.0426878 0.0720391 -0.0638651 
-0.0391112 0.0698315 -0.0611629 -0.0357658 0.0681454 -0.0583287 -0.0331521 0.0669381 -0.0555485 
-0.0308932 0.065963 -0.0527944 -0.0294009 0.0650872 -0.0503212 -0.0282153 0.0642512 -0.0479604 
-0.0678296 0.107736 -0.082282 -0.0663416 0.0999894 -0.0815717 -0.0635049 0.0925994 -0.0806648 
-0.0596892 0.0862712 -0.0792111 -0.0550758 0.0808081 -0.0773119 -0.0502971 0.0766802 -0.0747806 
-0.0454044 0.073473 -0.0718133 -0.0411188 0.0713149 -0.0684771 -0.0371859 0.0697659 -0.0649266 
-0.0342333 0.068712 -0.0614213 -0.031756 0.067898 -0.0579379 -0.0302199 0.06712 -0.0548155 
-0.0290602 0.0663563 -0.0518374 -0.0758559 0.113656 -0.0913474 -0.0740125 0.104952 -0.0911015 
-0.0704686 0.0966131 -0.0905653 -0.0657136 0.0895394 -0.0892208 -0.0599717 0.083496 -0.0872178 
-0.0541085 0.0790504 -0.0842779 -0.0481617 0.0757066 -0.080692 -0.0430867 0.0735635 -0.0765683 
-0.038518 0.0721175 -0.0721323 -0.0352248 0.0711694 -0.0677542 -0.03255 0.0704625 -0.0634042 
-0.031006 0.0697192 -0.0595324 -0.0299142 0.0689613 -0.0558519 -0.0850668 0.121752 -0.101868 
-0.0828585 0.111903 -0.102307 -0.0784761 0.102428 -0.102335 -0.0725703 0.0944554 -0.101185 
-0.0654232 0.0877079 -0.0990741 -0.0582241 0.0828581 -0.0955954 -0.0509892 0.0793172 -0.0911733 
-0.0449863 0.0771298 -0.0859977 -0.0396987 0.0757282 -0.0803844 -0.036062 0.074804 -0.0748791 
-0.0332256 0.0741113 -0.0694262 -0.0317356 0.0732941 -0.0646328 -0.0307841 0.072427 -0.0601031 
-0.0952552 0.132208 -0.113379 -0.092683 0.12114 -0.114661 -0.0873644 0.110459 -0.115409 
-0.0801509 0.101513 -0.114518 -0.0713935 0.09398 -0.112293 -0.0626833 0.0886204 -0.108158 
-0.0540058 0.0847593 -0.102705 -0.0469976 0.0823758 -0.096261 -0.0409585 0.0808504 -0.0892413 
-0.0369942 0.0797732 -0.0824294 -0.0340357 0.0789134 -0.0757183 -0.0326415 0.0778559 -0.0699014 
-0.0318729 0.0767194 -0.0644423 -0.106861 0.146087 -0.126327 -0.103926 0.133691 -0.12868 
-0.0975298 0.121704 -0.130372 -0.0887811 0.111674 -0.129837 -0.078116 0.10324 -0.127488 
-0.0676409 0.0972166 -0.122525 -0.0572967 0.0928568 -0.11576 -0.0491709 0.0900576 -0.107734 
-0.0423331 0.0881645 -0.0989752 -0.0380642 0.0866777 -0.0905965 -0.0350408 0.0853879 -0.0824019 
-0.0338029 0.083849 -0.0754142 -0.0332792 0.0822105 -0.0689092 -0.119634 0.163188 -0.13983 
-0.116329 0.149458 -0.143237 -0.108759 0.136218 -0.145894 -0.0983575 0.125106 -0.145706 
-0.085648 0.115728 -0.143199 -0.0733106 0.108883 -0.137319 -0.0612297 0.103785 -0.129113 
-0.0519638 0.100264 -0.119393 -0.0443323 0.0976586 -0.108795 -0.0397719 0.0954348 -0.0987946 
-0.0367005 0.093396 -0.0890837 -0.0356163 0.0911122 -0.0809135 -0.035327 0.0887303 -0.0733596 
-0.133838 0.184241 -0.154013 -0.130153 0.169173 -0.158452 -0.121295 0.154744 -0.162101 
-0.109095 0.142551 -0.162249 -0.0941733 0.132181 -0.159545 -0.0798543 0.124319 -0.152637 
-0.0659508 0.118187 -0.142831 -0.0555171 0.113568 -0.131282 -0.0470981 0.109828 -0.118721 
-0.0422622 0.106466 -0.107031 -0.0391636 0.103286 -0.0957635 -0.0382299 0.0999339 -0.0863965 
-0.0381622 0.0965126 -0.0777898 -0.149369 0.20744 -0.1676 -0.145163 0.19099 -0.172469 
-0.134873 0.17551 -0.176597 -0.120852 0.162355 -0.176795 -0.103791 0.151094 -0.173792 
-0.0876067 0.14217 -0.165983 -0.0720266 0.134858 -0.154861 -0.0605084 0.128912 -0.14183 
-0.0513487 0.123759 -0.127691 -0.0462089 0.118992 -0.114623 -0.043018 0.114412 -0.102074 
-0.0421343 0.109781 -0.0916838 -0.0421736 0.105129 -0.0821572 -0.0362704 0.0863982 -0.0509563 
-0.0363985 0.0816641 -0.0497236 -0.0359804 0.0772372 -0.0484565 -0.0351135 0.0733068 -0.0471413 
-0.0338807 0.069781 -0.045787 -0.0324164 0.0668297 -0.0444091 -0.0307923 0.0642746 -0.0430149 
-0.0291832 0.0622367 -0.0416606 -0.0275828 0.060499 -0.0403295 -0.0261976 0.0591232 -0.039115 
-0.0249169 0.0579229 -0.0379571 -0.0239641 0.0569078 -0.0369706 -0.0231424 0.0559668 -0.0360528 
-0.041371 0.0881881 -0.0563358 -0.0411748 0.0830002 -0.0550675 -0.0403379 0.0781428 -0.0537537 
-0.0389933 0.0738785 -0.0523506 -0.037235 0.0700976 -0.0508746 -0.0352583 0.0670175 -0.0493208 
-0.0331309 0.0644208 -0.0477133 -0.0310989 0.0624386 -0.0461023 -0.0291223 0.0608132 -0.0444891 
-0.0274711 0.0595862 -0.0429753 -0.0259779 0.0585524 -0.0415096 -0.0249107 0.0576865 -0.0402243 
-0.0240139 0.0568878 -0.0390113 -0.0467682 0.0900645 -0.0621229 -0.0462334 0.0843577 -0.0608556 
-0.0449385 0.0790066 -0.0595235 -0.0430601 0.0743647 -0.0580438 -0.0407064 0.0703007 -0.0564438 
-0.0381503 0.0670884 -0.0546932 -0.0354545 0.0644635 -0.0528387 -0.0329538 0.0625638 -0.0509264 
-0.0305664 0.0610851 -0.0489806 -0.0286365 0.0600391 -0.0471167 -0.0269284 0.0592029 -0.0452925 
-0.0257583 0.0585072 -0.0436652 -0.0248034 0.0578678 -0.0421166 -0.0529067 0.0921575 -0.0689291 
-0.0519981 0.0857686 -0.0677543 -0.0501469 0.0797661 -0.0664747 -0.0475945 0.0746372 -0.064947 
-0.0444706 0.07022 -0.0632171 -0.0411675 0.0668668 -0.0612175 -0.037741 0.0642475 -0.0590318 
-0.0346571 0.0624971 -0.056707 -0.0317723 0.0612513 -0.0543014 -0.0295316 0.0604669 -0.0519607 
-0.0276031 0.0599061 -0.0496516 -0.0263587 0.0594331 -0.047574 -0.0253879 0.0589951 -0.045589 
-0.0595583 0.0946639 -0.0764129 -0.0582534 0.0874831 -0.0754092 -0.055773 0.0807204 -0.0742464 
-0.0524395 0.0750289 -0.0726973 -0.0484108 0.0702101 -0.0708334 -0.0442367 0.0667086 -0.0685381 
-0.0399622 0.0641157 -0.0659454 -0.0362215 0.0625504 -0.0631121 -0.0327907 0.0615817 -0.0601392 
-0.0302319 0.0610904 -0.0572218 -0.0280959 0.0608305 -0.0543315 -0.0268087 0.0605863 -0.0517279 
-0.025861 0.0603483 -0.0492389 -0.0672682 0.098023 -0.0852946 -0.0655206 0.0898238 -0.0846235 
-0.0622606 0.0820764 -0.0837102 -0.0579254 0.0756664 -0.0821947 -0.0527143 0.0703461 -0.0801883 
-0.0474128 0.0666812 -0.0775013 -0.042049 0.0641578 -0.0743447 -0.0374993 0.0628511 -0.0708051 
-0.0334224 0.0622507 -0.0670432 -0.0305307 0.0621176 -0.0633431 -0.0282135 0.0622111 -0.059673 
-0.0269486 0.0622085 -0.0563872 -0.0261045 0.0621676 -0.0532551 -0.075818 0.10253 -0.0952441 
-0.0735993 0.0931816 -0.095058 -0.0694389 0.0843122 -0.0945312 -0.063918 0.0770833 -0.0931079 
-0.0572886 0.0711912 -0.0909538 -0.0506524 0.0673362 -0.0877772 -0.0440113 0.0648862 -0.0838954 
-0.0385524 0.063842 -0.0794581 -0.0337797 0.0636141 -0.0746984 -0.0305714 0.0638157 -0.070038 
-0.0281216 0.0642257 -0.0654258 -0.0269432 0.0644086 -0.0613416 -0.0262732 0.0645008 -0.0574685 
-0.0858141 0.109016 -0.107033 -0.0830756 0.0982912 -0.107594 -0.0778069 0.0880632 -0.107689 