# vtk DataFile Version 2.0
vtk output
ASCII
DATASET RECTILINEAR_GRID
DIMENSIONS 13 13 13
X_COORDINATES 13 float
-7.5 -7.29167 -7.08333 -6.875 -6.66667 -6.45833 -6.25 -6.04167 -5.83333 
-5.625 -5.41667 -5.20833 -5 
Y_COORDINATES 13 float
-10 -9.79167 -9.58333 -9.375 -9.16667 -8.95833 -8.75 -8.54167 -8.33333 
-8.125 -7.91667 -7.70833 -7.5 
Z_COORDINATES 13 float
-2.5 -2.29167 -2.08333 -1.875 -1.66667 -1.45833 -1.25 -1.04167 -0.833333 
-0.625 -0.416667 -0.208333 0 
POINT_DATA 2197
VECTORS grad float
-0.00572529 0.0834833 0.0442253 -0.00834921 0.0824311 0.0418689 -0.010797 0.0813347 0.0394407 
-0.0128043 0.0801275 0.0368329 -0.0146206 0.0789141 0.0341886 -0.0160428 0.0776879 0.0314691 
-0.0172793 0.0764906 0.0287455 -0.0181959 0.075343 0.0260148 -0.0189482 0.0742531 0.0233032 
-0.0194622 0.0732469 0.0206194 -0.0198449 0.0723223 0.0179666 -0.0200664 0.0714979 0.0153518 
-0.020198 0.0707793 0.012771 -0.00664903 0.0834286 0.0481795 -0.00939307 0.0823182 0.0456302 
-0.0119393 0.0811626 0.0430133 -0.0139911 0.0798941 0.0402278 -0.0158323 0.07862 0.0374173 
-0.0172393 0.0773342 0.0345554 -0.0184456 0.0760788 0.0317041 -0.019306 0.074876 0.0288708 
-0.0199914 0.0737333 0.0260686 -0.020423 0.0726779 0.0233115 -0.0207146 0.0717093 0.0205885 
-0.0208346 0.0708473 0.0179074 -0.0208573 0.0701033 0.0152497 -0.00758146 0.0833496 0.052141 
-0.0104461 0.0821782 0.0493972 -0.0130912 0.0809607 0.0465906 -0.0151875 0.0796279 0.0436266 
-0.0170536 0.07829 0.0406495 -0.0184452 0.0769413 0.0376453 -0.0196209 0.0756246 0.0346666 
-0.0204248 0.0743629 0.0317316 -0.0210427 0.0731639 0.0288399 -0.0213911 0.0720557 0.0260111 
-0.0215907 0.0710395 0.0232197 -0.0216076 0.0701362 0.0204742 -0.0215192 0.0693635 0.0177415 
-0.00871786 0.0826961 0.0562719 -0.0117153 0.0814021 0.0533019 -0.0144682 0.0800584 0.0502777 
-0.0166102 0.0785904 0.0471178 -0.0185002 0.0771157 0.0439629 -0.0198706 0.0756272 0.0408182 
-0.0210084 0.0741705 0.0377209 -0.0217457 0.0727684 0.0347054 -0.0222834 0.0714296 0.031752 
-0.0225316 0.0701825 0.0288888 -0.022614 0.0690328 0.02607 -0.022493 0.0680024 0.0233058 
-0.0222414 0.067125 0.0205418 -0.00987305 0.0819503 0.0603873 -0.0130051 0.0805333 0.0571886 
-0.0158677 0.0790626 0.0539448 -0.0180567 0.0774575 0.050588 -0.0199718 0.0758438 0.0472548 
-0.0213219 0.0742122 0.0439699 -0.0224227 0.0726116 0.0407552 -0.0230942 0.0710642 0.0376614 
-0.0235522 0.0695799 0.0346493 -0.0237006 0.0681872 0.0317557 -0.0236653 0.0668959 0.0289144 
-0.0234045 0.0657291 0.0261374 -0.0229855 0.0647365 0.0233481 -0.0112395 0.0801659 0.0643271 
-0.0145281 0.0786214 0.0608736 -0.0175202 0.0770146 0.0573879 -0.0197708 0.0752524 0.0538219 
-0.0217241 0.073474 0.0503037 -0.0230641 0.0716621 0.0468841 -0.0241376 0.0698737 0.0435646 
-0.024752 0.0681259 0.0404176 -0.0251371 0.0664322 0.0373803 -0.0251897 0.064817 0.0345022 
-0.0250303 0.0632946 0.0316931 -0.0246106 0.0618862 0.0289687 -0.0239761 0.0606617 0.026224 
-0.0126323 0.0782469 0.0681803 -0.0160826 0.0765756 0.0644708 -0.019209 0.0748328 0.0607427 
-0.0215258 0.0729112 0.0569676 -0.0235216 0.070965 0.0532653 -0.0248556 0.0689679 0.0497129 
-0.0259057 0.0669863 0.0462913 -0.026467 0.0650314 0.0430952 -0.0267834 0.063121 0.0400383 
-0.0267447 0.0612752 0.0371835 -0.0264647 0.0595117 0.0344168 -0.0258886 0.0578494 0.0317583 
-0.0250356 0.0563774 0.0290742 -0.0142145 0.0753628 0.0714124 -0.0178629 0.0735705 0.0674393 
-0.0211589 0.0716912 0.0634636 -0.0235742 0.0695942 0.0594813 -0.0256435 0.0674581 0.0556005 
-0.0269996 0.0652411 0.0519289 -0.0280548 0.063027 0.0484249 -0.0285916 0.0608179 0.0452097 
-0.0288694 0.0586387 0.0421739 -0.0287717 0.0565029 0.0393981 -0.028397 0.0544265 0.0367471 
-0.0276822 0.052423 0.0342495 -0.0265898 0.0505911 0.0317409 -0.0158253 0.0723506 0.0744294 
-0.019683 0.0704385 0.070197 -0.0231597 0.068422 0.0659783 -0.0256835 0.0661447 0.0617934 
-0.0278357 0.0638127 0.0577389 -0.0292216 0.0613677 0.0539533 -0.0302888 0.0589135 0.0503726 
-0.0308072 0.0564433 0.0471451 -0.0310535 0.0539907 0.044139 -0.030905 0.0515638 0.041454 
-0.0304451 0.0491756 0.038936 -0.0296029 0.0468349 0.0366229 -0.0282765 0.0446449 0.0343229 
-0.0175827 0.068683 0.0763435 -0.0217076 0.0666558 0.0718743 -0.0254209 0.0644985 0.0674354 
-0.0281054 0.062016 0.0630722 -0.0303882 0.0594576 0.0588689 -0.0318428 0.056743 0.0549953 
-0.0329583 0.0540094 0.0513672 -0.0334897 0.051243 0.0481618 -0.03374 0.0484938 0.0452305 
-0.0335827 0.0457695 0.0426969 -0.0330867 0.0430753 0.0403997 -0.032175 0.0404181 0.0383928 
-0.0306423 0.0378787 0.036471 -0.0193689 0.0649965 0.0778703 -0.0237839 0.0628498 0.0731779 
-0.0277557 0.0605442 0.0685321 -0.0306196 0.0578409 0.0640025 -0.0330488 0.0550394 0.0596617 
-0.0345812 0.0520353 0.0557102 -0.0357499 0.0490053 0.0520441 -0.0362923 0.0459306 0.0488697 
-0.036543 0.0428825 0.0460234 -0.0363708 0.0398728 0.0436526 -0.035837 0.0369029 0.0415937 
-0.0348592 0.0339819 0.0399174 -0.0331262 0.031166 0.0384151 -0.0212671 0.0612363 0.0778862 
-0.0260619 0.058953 0.0730243 -0.0303773 0.0564694 0.0682233 -0.0334944 0.053485 0.0635742 
-0.0361309 0.0503746 0.05914 -0.0377763 0.0470042 0.0551491 -0.0390177 0.0436116 0.0514823 
-0.0395633 0.0401809 0.0483737 -0.0398002 0.0368245 0.0456512 -0.0395894 0.033576 0.0434883 
-0.0390107 0.0304488 0.0417355 -0.0379805 0.0274704 0.0404858 -0.0360715 0.024662 0.0395641 
-0.0232059 0.0577251 0.0773432 -0.028426 0.0552844 0.072334 -0.0331272 0.0525962 0.0673987 
-0.036531 0.0492889 0.0626484 -0.0393999 0.0458249 0.0581381 -0.0411658 0.0420376 0.0541226 
-0.0424741 0.0382357 0.0504684 -0.042994 0.0344088 0.0474366 -0.0431731 0.030721 0.0448456 
-0.042858 0.0272348 0.0428937 -0.0421618 0.023991 0.0414442 -0.0409979 0.0210444 0.040611 
-0.0388471 0.0183961 0.0402569 -0.0079407 0.0875264 0.0458303 -0.0107355 0.0862808 0.0432778 
-0.0133315 0.0849954 0.0406542 -0.0154302 0.0836105 0.0378528 -0.0173175 0.0822313 0.0350217 
-0.0187685 0.0808637 0.0321292 -0.0200189 0.0795402 0.0292438 -0.0209235 0.0782927 0.0263705 
-0.0216558 0.0771154 0.0235292 -0.0221382 0.0760401 0.0207345 -0.0224874 0.0750502 0.0179818 
-0.0226732 0.0741652 0.0152808 -0.0227695 0.0733759 0.0126184 -0.00904925 0.087517 0.0503306 
-0.0119646 0.086205 0.0475584 -0.0146556 0.0848534 0.0447226 -0.0167855 0.0834029 0.0417278 
-0.0186823 0.0819603 0.03872 -0.0200983 0.080534 0.035685 -0.021299 0.0791553 0.0326774 
-0.022129 0.0778587 0.029717 -0.0227794 0.0766367 0.0268055 -0.0231693 0.075523 0.0239649 
-0.0234234 0.0745013 0.0211719 -0.0235107 0.0735922 0.0184372 -0.0235083 0.0727906 0.015729 
-0.0101678 0.0874811 0.0548434 -0.0132041 0.0860997 0.0518495 -0.0159902 0.0846789 0.0488 
-0.0181509 0.0831597 0.045611 -0.0200568 0.0816507 0.0424258 -0.0214371 0.0801625 0.0392485 
-0.0225875 0.0787254 0.0361194 -0.0233421 0.0773765 0.0330732 -0.0239097 0.0761067 0.0300931 
-0.024206 0.0749516 0.0272089 -0.0243637 0.073895 0.0243779 -0.024351 0.072959 0.0216123 
-0.0242476 0.0721428 0.0188608 -0.0115225 0.0868212 0.0596466 -0.0146866 0.0853024 0.0563889 
-0.0175708 0.0837428 0.0530892 -0.0197549 0.0820812 0.0496842 -0.0216598 0.0804316 0.0463086 
-0.0229885 0.0788067 0.0429935 -0.0240715 0.0772367 0.039757 -0.0247311 0.0757616 0.0366558 
-0.0251944 0.0743707 0.0336466 -0.0253732 0.0731021 0.0307707 -0.0254047 0.0719412 0.0279589 
-0.0252552 0.0709125 0.0252255 -0.025001 0.0700271 0.0224916 -0.0128982 0.0860501 0.0644408 
-0.0161918 0.0843939 0.060916 -0.0191752 0.0826952 0.0573633 -0.0213833 0.08089 0.0537408 
-0.0232875 0.079098 0.0501739 -0.0245647 0.0773333 0.0467217 -0.0255801 0.0756269 0.0433793 
-0.0261445 0.074021 0.0402259 -0.0265033 0.0725038 0.0371913 -0.0265638 0.0711155 0.0343291 
-0.0264675 0.0698434 0.0315424 -0.0261788 0.0687141 0.0288484 -0.0257693 0.0677513 0.0261399 
-0.0145113 0.0840275 0.0691333 -0.0179509 0.0822356 0.0653046 -0.0210473 0.0803946 0.0614678 
-0.0232859 0.0784306 0.0576106 -0.0251938 0.0764752 0.0538431 -0.0264199 0.0745374 0.0502607 
-0.027367 0.0726545 0.0468286 -0.0278336 0.0708664 0.0436555 -0.0280831 0.0691642 0.0406387 
-0.0280177 0.0675867 0.0378482 -0.0277768 0.0661257 0.0351551 -0.0273207 0.0648076 0.0325816 
-0.0267039 0.0636742 0.0299839 -0.0161518 0.0818343 0.0737373 -0.0197419 0.0799093 0.0696028 
-0.0229557 0.0779275 0.0654805 -0.0252284 0.075804 0.0613886 -0.0271436 0.0736832 0.0574212 
-0.0283213 0.0715682 0.0537107 -0.0292028 0.0695041 0.0501922 -0.0295739 0.0675278 0.0470043 
-0.0297162 0.065634 0.0440116 -0.0295266 0.06386 0.0413018 -0.0291418 0.0622017 0.0387137 
-0.0285175 0.0606854 0.0362751 -0.027688 0.0593702 0.0338057 -0.017989 0.0784188 0.077707 
-0.0217621 0.0763787 0.0732533 -0.0251238 0.0742674 0.0688359 -0.0274574 0.0719779 0.0645092 
-0.0294044 0.0696782 0.060347 -0.0305541 0.0673574 0.0565238 -0.0313888 0.065078 0.0529414 
-0.0316809 0.0628701 0.0497736 -0.0317311 0.0607375 0.0468515 -0.0314305 0.0587141 0.0442855 
-0.0309064 0.056799 0.0418841 -0.0301078 0.0550166 0.0396847 -0.0290269 0.0534399 0.0374679 
-0.0198506 0.0748251 0.0814355 -0.0238174 0.072674 0.076668 -0.0273378 0.0704352 0.071961 
-0.029742 0.0679772 0.0674054 -0.0317297 0.0654946 0.0630542 -0.0328583 0.0629613 0.0591245 
-0.0336521 0.0604601 0.0554847 -0.0338693 0.0580142 0.0523444 -0.0338312 0.0556383 0.0495021 
-0.0334228 0.053364 0.047092 -0.032762 0.0511932 0.0448945 -0.0317915 0.0491493 0.0429578 
-0.030456 0.0473159 0.0410258 -0.0218368 0.0703183 0.0839281 -0.0260531 0.0680768 0.0788743 
-0.0297863 0.0657216 0.0739061 -0.0323117 0.0630821 0.0691516 -0.0343858 0.0603965 0.0646418 
-0.0355288 0.0576162 0.0606364 -0.0363119 0.0548591 0.0569728 -0.0364749 0.0521422 0.0538975 
-0.0363673 0.0495004 0.0511828 -0.0358674 0.0469674 0.0489908 -0.0350844 0.044547 0.0470854 
-0.033954 0.0422647 0.0455317 -0.0323474 0.0401988 0.0440489 -0.0238384 0.0657417 0.0859666 
-0.0283273 0.0634085 0.0806454 -0.0322955 0.0609321 0.0754339 -0.0349618 0.0580979 0.0704965 
-0.0371385 0.0551946 0.065843 -0.0383056 0.052149 0.0617746 -0.0390829 0.0491201 0.0580986 
-0.039189 0.0461201 0.0550984 -0.0390062 0.0432084 0.0525215 -0.0384041 0.040425 0.0505584 
-0.0374888 0.0377782 0.0489606 -0.0361888 0.0352989 0.0478114 -0.0343014 0.0330577 0.0468129 
-0.0258998 0.0608932 0.0862345 -0.0307516 0.058463 0.0807187 -0.0350411 0.055847 0.0753338 
-0.0379249 0.0527667 0.0702765 -0.0402682 0.0495879 0.0655375 -0.0414967 0.0462058 0.0614551 
-0.0422881 0.0428427 0.0578119 -0.0423269 0.0395122 0.0549254 -0.0420455 0.0363158 0.0525264 
-0.0413 0.0333141 0.0508343 -0.0402127 0.0305311 0.0496051 -0.038706 0.0280167 0.0489438 
-0.0364999 0.0258227 0.0485667 -0.0279799 0.0562657 0.0858276 -0.0332412 0.0537177 0.0801486 
-0.0378954 0.0509353 0.0746205 -0.0410317 0.0475667 0.0694693 -0.0435682 0.0440678 0.0646691 
-0.0448672 0.0402998 0.0605927 -0.0456691 0.0365569 0.057 -0.0456148 0.0328572 0.0542402 
-0.0451955 0.0293524 0.052028 -0.0442468 0.0261301 0.0506095 -0.0429212 0.0232394 0.0497441 
-0.0411331 0.0207555 0.0495574 -0.0385444 0.0187169 0.0497833 -0.0104704 0.0924688 0.0471833 
-0.0134449 0.0909796 0.044401 -0.0161926 0.089461 0.0415477 -0.0183735 0.0878687 0.038517 
-0.0203187 0.0863031 0.0354628 -0.0217778 0.0847923 0.0323602 -0.0230194 0.0833509 0.0292756 
-0.0238864 0.0820288 0.0262218 -0.0245737 0.0807978 0.0232139 -0.0250003 0.0796989 0.0202727 
-0.0252956 0.0786928 0.0173879 -0.0254297 0.0778003 0.0145723 -0.0254824 0.0769897 0.0118051 
-0.0118153 0.0925656 0.052288 -0.014904 0.0909961 0.0492487 -0.0177349 0.0893993 0.0461505 
-0.0199213 0.0877344 0.0429051 -0.0218477 0.0861013 0.0396596 -0.0232379 0.0845334 0.0364138 
-0.0243973 0.0830416 0.0332138 -0.0251591 0.0816805 0.0300924 -0.0257394 0.0804177 0.0270399 
-0.0260564 0.0792974 0.024087 -0.0262485 0.0782777 0.0211984 -0.0262873 0.0773814 0.0183886 
-0.0262549 0.076578 0.0156121 -0.0131726 0.0926355 0.0574125 -0.0163754 0.0909822 0.0541137 
-0.0192891 0.0893039 0.0507684 -0.0214801 0.087563 0.047307 -0.0233866 0.085859 0.0438693 
-0.0247065 0.084231 0.0404808 -0.0257822 0.0826857 0.0371662 -0.0264375 0.081283 0.0339791 
-0.0269094 0.0799858 0.030884 -0.0271153 0.0788417 0.0279226 -0.0272026 0.0778064 0.0250334 
-0.0271445 0.0769046 0.022233 -0.027025 0.0761071 0.0194505 -0.0148212 0.0920736 0.0630029 
-0.0181359 0.0902557 0.0593842 -0.0211245 0.0884153 0.05574 -0.0232976 0.0865188 0.0520324 
-0.0251587 0.0846665 0.0483845 -0.026376 0.0829053 0.0448599 -0.0273351 0.0812369 0.0414508 
-0.0278497 0.0797284 0.0382406 -0.0281791 0.0783367 0.035157 -0.0282402 0.0771143 0.0322572 
-0.0281869 0.0760144 0.0294435 -0.0279934 0.075065 0.0267358 -0.0277405 0.0742439 0.0240265 
-0.0164955 0.0913767 0.0685962 -0.0199227 0.089395 0.0646523 -0.0229863 0.087393 0.0607049 
-0.0251411 0.08534 0.0567484 -0.0269558 0.0833378 0.0528887 -0.0280692 0.0814407 0.0492286 
-0.0289103 0.0796459 0.0457265 -0.0292825 0.078027 0.0424966 -0.0294679 0.0765356 0.039429 
-0.0293823 0.0752288 0.0365969 -0.0291859 0.074058 0.0338659 -0.0288536 0.0730539 0.0312589 
-0.0284625 0.0722023 0.0286313 -0.0184587 0.0891612 0.0742207 -0.0220054 0.0870248 0.0698937 
-0.025147 0.0848648 0.0655934 -0.0272759 0.0826458 0.0613594 -0.0290344 0.0804775 0.0572703 
-0.0300289 0.0784136 0.05348 -0.0307361 0.0764539 0.0499024 -0.0309483 0.0746738 0.0466913 
-0.0309705 0.0730249 0.0436906 -0.0307171 0.0715662 0.0409949 -0.0303497 0.0702516 0.0384256 
-0.0298424 0.0691141 0.0360115 -0.0292585 0.0681536 0.0335611 -0.0204526 0.0867261 0.079761 
-0.0241224 0.0844402 0.0750468 -0.0273453 0.0821264 0.0703903 -0.0294507 0.0797427 0.0658776 
-0.0311551 0.0774079 0.0615588 -0.0320322 0.0751742 0.0576399 -0.0326065 0.0730457 0.0539896 
-0.0326593 0.0710984 0.050802 -0.0325184 0.0692854 0.0478744 -0.0320966 0.0676673 0.0453238 
-0.0315562 0.0662012 0.0429272 -0.0308703 0.0649216 0.0407196 -0.0300862 0.0638434 0.0384625 
-0.0226676 0.0827171 0.0846978 -0.0264854 0.0803199 0.0795673 -0.0298123 0.0778819 0.0745312 
-0.031912 0.0753416 0.069731 -0.0335775 0.072839 0.0651805 -0.0343474 0.070414 0.0611449 
-0.0347967 0.0680875 0.0574417 -0.034694 0.0659305 0.0543112 -0.0343905 0.0639066 0.0515016 
-0.0337961 0.0620755 0.0491573 -0.0330689 0.0604011 0.0470115 -0.0321787 0.0589188 0.0451092 
-0.0311416 0.0576592 0.0431616 -0.0249015 0.078456 0.0893681 -0.0288776 0.0759573 0.0838271 
-0.0323188 0.0734024 0.0784175 -0.0344225 0.0707071 0.0733362 -0.0360579 0.0680361 0.0685603 
-0.0367274 0.0654155 0.0644138 -0.0370571 0.0628859 0.0606638 -0.0368015 0.0605131 0.0575967 
-0.036337 0.0582735 0.0549126 -0.0355697 0.0562268 0.0527842 -0.0346537 0.0543438 0.0509028 
-0.0335552 0.0526618 0.0493244 -0.0322559 0.0512252 0.0477121 -0.0272323 0.0729031 0.0926724 
-0.0314196 0.0703525 0.086751 -0.0350271 0.0677186 0.0809988 -0.0371849 0.0648765 0.0756691 
-0.0388353 0.0620352 0.0706996 -0.0394389 0.0591957 0.0664731 -0.0396762 0.0564369 0.0627075 
-0.0392824 0.0538171 0.0597355 -0.0386647 0.0513375 0.0572158 -0.0377226 0.049061 0.055352 
-0.0366076 0.0469686 0.0538046 -0.0352804 0.0451021 0.0526458 -0.0336719 0.0435114 0.0515008 
-0.0295558 0.0671996 0.0954423 -0.0339782 0.0646023 0.0891668 -0.0377753 0.0618908 0.0830966 
-0.0400091 0.0588936 0.0775398 -0.0416931 0.0558715 0.0723961 -0.0422429 0.0527981 0.0681042 
-0.0423949 0.0497963 0.0643354 -0.0418615 0.0469181 0.0614675 -0.0410849 0.0441938 0.0591201 
-0.0399557 0.0416926 0.0575273 -0.0386273 0.0394077 0.0563237 -0.0370545 0.0373881 0.0555976 
-0.035118 0.0356868 0.0549437 -0.031851 0.0609084 0.0961283 -0.0366018 0.058285 0.0896006 
-0.0406794 0.0555012 0.0833092 -0.0430744 0.0523169 0.0776084 -0.0448646 0.0490731 0.0723651 
-0.0454075 0.0457066 0.0680653 -0.0455019 0.0424083 0.0643423 -0.0448238 0.0392273 0.0616128 
-0.0438656 0.0362401 0.0594684 -0.0425013 0.0335338 0.0581725 -0.0409035 0.0311222 0.05735 
-0.0390192 0.0290725 0.0571085 -0.0366821 0.0274304 0.0570374 -0.0341249 0.0547834 0.0959926 
-0.0392525 0.0521149 0.0892603 -0.0436566 0.0492341 0.0827925 -0.0462518 0.0458223 0.0769854 
-0.0481792 0.0423143 0.0716764 -0.0487291 0.0386076 0.0673946 -0.0487674 0.0349696 0.063739 
-0.0479246 0.0314502 0.061162 -0.0467518 0.0281775 0.0592289 -0.0451005 0.0252625 0.0582296 
-0.0431744 0.0227449 0.0577807 -0.0409113 0.0207148 0.0580071 -0.0381135 0.0192109 0.0584972 
-0.0130912 0.0976716 0.0484634 -0.0162478 0.0959243 0.0454414 -0.0191483 0.0941596 0.0423486 
-0.0214086 0.0923513 0.0390782 -0.023408 0.0905933 0.0357905 -0.0248692 0.0889389 0.032467 
-0.0260956 0.0873818 0.0291723 -0.0269176 0.0859925 0.0259271 -0.0275525 0.0847176 0.022742 
-0.0279164 0.0836084 0.0196441 -0.0281518 0.0826001 0.0166177 -0.0282296 0.0817157 0.0136792 
-0.0282361 0.080898 0.0108004 -0.0146872 0.0978922 0.0541892 -0.0179498 0.096049 0.0508701 
-0.0209193 0.0941928 0.047497 -0.0231559 0.0923041 0.0439889 -0.0251044 0.090474 0.0404941 
-0.0264587 0.0887643 0.0370267 -0.0275664 0.0871622 0.0336236 -0.0282492 0.0857452 0.0303315 
-0.0287492 0.0844527 0.0271287 -0.0289842 0.0833407 0.0240553 -0.0291072 0.0823391 0.0210638 
-0.0290929 0.081473 0.0181726 -0.0290292 0.0806839 0.0153226 -0.0162983 0.0980861 0.059943 
-0.0196664 0.0961429 0.0563233 -0.0227039 0.0941912 0.0526671 -0.0249152 0.0922185 0.0489195 
-0.026811 0.0903127 0.0452166 -0.0280562 0.0885448 0.0416056 -0.029043 0.0868948 0.0380954 
-0.0295845 0.0854479 0.0347588 -0.0299475 0.0841359 0.0315411 -0.0300518 0.0830196 0.0284961 
-0.0300607 0.0820235 0.0255434 -0.0299524 0.0811751 0.022704 -0.0298166 0.0804144 0.0198869 
-0.018263 0.0976523 0.0663539 -0.0217235 0.0955139 0.0623529 -0.0248087 0.093374 0.0583444 
-0.0269555 0.0912305 0.0543173 -0.0287559 0.0891674 0.0503823 -0.0298415 0.0872701 0.0466368 
-0.0306568 0.0855075 0.0430455 -0.0310068 0.0839771 0.0397195 -0.0311851 0.0825993 0.0365563 
-0.0311145 0.0814427 0.0336291 -0.0309668 0.0804248 0.0308112 -0.0307245 0.0795771 0.0281276 
-0.030474 0.0788413 0.0254412 -0.0202585 0.0970584 0.0727809 -0.0238112 0.0947262 0.0683912 
-0.0269432 0.0923991 0.0640242 -0.0290236 0.0900845 0.0597139 -0.0307261 0.087863 0.0555443 
-0.0316493 0.0858337 0.0516646 -0.0322904 0.0839553 0.0479937 -0.0324458 0.0823369 0.0446823 
-0.0324364 0.0808881 0.0415787 -0.0321878 0.0796852 0.0387763 -0.03188 0.0786393 0.0361012 
-0.0314996 0.0777859 0.0335823 -0.0311294 0.0770691 0.0310359 -0.0226016 0.0946632 0.0793893 
-0.0262428 0.0921541 0.0745286 -0.0294125 0.0896506 0.0697322 -0.0314035 0.0871612 0.0650966 
-0.0329823 0.0847696 0.060665 -0.0337112 0.0825795 0.0566538 -0.0341455 0.0805482 0.0529212 
-0.0340726 0.0787901 0.0496685 -0.033841 0.0772122 0.0466827 -0.0333794 0.0758958 0.0440839 
-0.0328723 0.0747524 0.0416407 -0.0323095 0.0738214 0.0393883 -0.0317629 0.0730576 0.0370853 
-0.0249796 0.0919955 0.0859196 -0.0287117 0.0893178 0.0805811 -0.031921 0.086645 0.0753498 
-0.0338235 0.0839842 0.0703863 -0.0352794 0.081424 0.065691 -0.035814 0.0790714 0.0615492 
-0.036041 0.0768836 0.0577572 -0.0357385 0.0749799 0.0545675 -0.0352829 0.0732664 0.0517053 
-0.0346053 0.0718285 0.0493179 -0.0338946 0.0705798 0.0471165 -0.0331431 0.0695632 0.0451431 
-0.0324109 0.0687451 0.0430978 -0.0276079 0.0873749 0.0918901 -0.0314473 0.0845892 0.086026 
-0.0347103 0.081797 0.08032 -0.0365321 0.078989 0.075009 -0.03787 0.0762721 0.0700393 
-0.0382099 0.0737429 0.0657735 -0.0382261 0.0713744 0.0619373 -0.0376849 0.0692827 0.0588412 
-0.0369913 0.0673854 0.0561438 -0.0360768 0.0657699 0.0540247 -0.0351311 0.0643592 0.0521362 
-0.034147 0.0631998 0.0505305 -0.033163 0.0622752 0.0488456 -0.0302493 0.0824216 0.0975688 
-0.0342058 0.0795438 0.0911855 -0.0375322 0.0766457 0.0850111 -0.039283 0.0736967 0.0793593 
-0.0405118 0.0708265 0.0741215 -0.0406637 0.0681188 0.0697374 -0.040474 0.0655661 0.0658624 
-0.039696 0.0632807 0.0628643 -0.0387641 0.0611945 0.0603369 -0.0376092 0.0593971 0.0584922 
-0.0364222 0.0578224 0.0569255 -0.035196 0.0565211 0.0557 -0.0339459 0.0554931 0.0543935 
-0.0329582 0.0757628 0.101752 -0.0370817 0.0728756 0.0948815 -0.0405213 0.0699396 0.0882715 
-0.0422511 0.0668817 0.0823133 -0.0434155 0.0638765 0.0768399 -0.0434139 0.0609797 0.0723664 
-0.0430436 0.0582255 0.0684796 -0.0420384 0.0557166 0.0656031 -0.0408667 0.053415 0.0632722 
-0.0394535 0.051414 0.0617326 -0.0379935 0.0496653 0.0605336 -0.0364759 0.0482263 0.0597526 
-0.0348862 0.0471113 0.0589163 -0.0356345 0.0688637 0.105317 -0.0399498 0.06598 0.0979933 
-0.0435274 0.0630146 0.0909797 -0.0452606 0.0598453 0.0847421 -0.0463821 0.0566995 0.0790568 
-0.0462419 0.0536021 0.0745106 -0.0457007 0.0506351 0.070625 -0.044469 0.0478924 0.0678772 
-0.0430524 0.04537 0.0657477 -0.0413678 0.0431673 0.0645145 -0.0396173 0.0412556 0.0636856 
-0.0377859 0.0397009 0.0633528 -0.0358309 0.0385294 0.0629971 -0.0381839 0.0610275 0.106469 
-0.0427878 0.0581973 0.0988263 -0.0465998 0.0552355 0.0915349 -0.0484319 0.0519449 0.0851226 
-0.0495938 0.0486372 0.0793172 -0.0493734 0.045294 0.0747635 -0.0486993 0.0420706 0.0709307 
-0.0472435 0.0390537 0.0683395 -0.0455626 0.0362898 0.0664298 -0.0435553 0.0338929 0.0655083 
-0.0414465 0.0318607 0.0650587 -0.0392131 0.0302758 0.0651883 -0.036793 0.0291674 0.0653541 
-0.0406666 0.0532945 0.106644 -0.04561 0.0505018 0.0987475 -0.0497052 0.0475213 0.0912395 
-0.0516802 0.0440715 0.0847028 -0.0529184 0.0405618 0.0788216 -0.0526374 0.0369285 0.0742925 
-0.0518377 0.0334089 0.0705381 -0.0501444 0.0300851 0.0681178 -0.0481733 0.0270587 0.0664352 
-0.0457992 0.0244636 0.0658221 -0.0432811 0.0223247 0.065741 -0.0405862 0.0207459 0.0663129 
-0.0376454 0.0197551 0.0669759 -0.0161085 0.103915 0.0491705 -0.0194608 0.101833 0.0458806 
-0.0225223 0.0997563 0.0425173 -0.0248566 0.0976896 0.0389704 -0.0269007 0.0957104 0.035408 
-0.0283464 0.0939117 0.031814 -0.0295372 0.0922531 0.0282548 -0.0302887 0.0908359 0.0247557 
-0.0308439 0.0895679 0.0213287 -0.0311145 0.0885162 0.0180065 -0.0312599 0.0875776 0.0147762 
-0.0312516 0.0867779 0.0116587 -0.0311885 0.0860229 0.00862609 -0.0180348 0.104358 0.055532 
-0.0214732 0.102154 0.0518944 -0.0245756 0.0999621 0.0482072 -0.0268378 0.0978018 0.0443957 
-0.0287793 0.0957424 0.0406091 -0.0300593 0.0938914 0.0368738 -0.0310751 0.0921961 0.0332192 
-0.031636 0.0907691 0.0297037 -0.0320141 0.0895059 0.0262977 -0.032127 0.0884799 0.0230507 
-0.0321462 0.0875785 0.0199089 -0.0320504 0.0868299 0.0168962 -0.0319389 0.0861341 0.0139445 
-0.0199807 0.104778 0.0619326 -0.0235039 0.102446 0.0579425 -0.0266455 0.100135 0.0539272 
-0.0288327 0.0978763 0.0498489 -0.0306685 0.095733 0.0458367 -0.0317792 0.0938267 0.0419608 
-0.0326168 0.0920922 0.0382124 -0.0329839 0.0906536 0.0346837 -0.0331819 0.0893938 0.0313028 
-0.0331348 0.0883931 0.0281361 -0.0330257 0.0875288 0.0250884 -0.0328405 0.0868319 0.0221864 
-0.0326793 0.0861962 0.0193213 -0.0223884 0.104658 0.0692512 -0.0259643 0.102074 0.064796 
-0.0291026 0.0995263 0.0603568 -0.0311473 0.0970685 0.0559576 -0.0328055 0.0947494 0.0516881 
-0.0336667 0.0927164 0.0476857 -0.0342477 0.0908826 0.0438809 -0.0343461 0.0893919 0.0404163 
-0.0342959 0.0881065 0.0371562 -0.0340302 0.0871184 0.0341927 -0.0337427 0.0862898 0.0313691 
-0.0334283 0.0856568 0.0287173 -0.0331828 0.0851069 0.0260678 -0.0248375 0.104349 0.0766075 
-0.0284638 0.101515 0.071676 -0.0315961 0.0987314 0.0668032 -0.0334937 0.096074 0.0620775 
-0.0349697 0.0935782 0.0575466 -0.0355762 0.0914157 0.0534177 -0.0358954 0.0894789 0.0495581 
-0.0357201 0.0879308 0.0461624 -0.0354168 0.0866135 0.0430294 -0.0349282 0.0856309 0.0402776 
-0.0344578 0.0848307 0.0376877 -0.0340097 0.0842545 0.0352967 -0.0336751 0.0837841 0.0328734 
-0.0277511 0.1019 0.0843881 -0.0314036 0.0988395 0.0788545 -0.0344983 0.0958372 0.0734399 
-0.0361986 0.0929802 0.0683225 -0.0374394 0.0902975 0.063486 -0.0377326 0.0879741 0.059229 
-0.0377324 0.0858919 0.0553334 -0.0372271 0.0842251 0.0520603 -0.0366169 0.0828071 0.0491256 
-0.0358547 0.0817498 0.0466816 -0.035151 0.0808974 0.0444324 -0.0345194 0.0802964 0.0424221 
-0.03404 0.0798351 0.0403433 -0.0307105 0.0991081 0.0921091 -0.0343892 0.0958342 0.0859613 
-0.0374459 0.0926242 0.0799943 -0.0389475 0.0895743 0.0744793 -0.0399515 0.0867087 0.0693331 
-0.0399294 0.0842235 0.0649471 -0.0396074 0.0819927 0.0610162 -0.0387691 0.0802002 0.0578688 
-0.0378482 0.078673 0.055137 -0.0368075 0.0775306 0.0530076 -0.0358645 0.0766154 0.0511073 
-0.0350414 0.0759793 0.0494882 -0.0344068 0.0755181 0.0477657 -0.0339986 0.093856 0.0994041 
-0.0377035 0.0904637 0.092554 -0.0407194 0.0871275 0.0859596 -0.0420125 0.0839314 0.0800045 
-0.0427683 0.0809124 0.074518 -0.0424157 0.0782583 0.0699978 -0.0417543 0.0758558 0.0660364 
-0.0405611 0.0738868 0.0630376 -0.0393027 0.07219 0.0605415 -0.0379495 0.0708879 0.0587744 
-0.0367229 0.0698352 0.0572828 -0.0356516 0.0690888 0.0561292 -0.0347866 0.0685633 0.0548489 
-0.037295 0.0881537 0.10639 -0.041035 0.0846709 0.0988419 -0.0440191 0.0812324 0.0916249 
-0.0451139 0.0779046 0.0852353 -0.0456308 0.0747422 0.0794134 -0.0449554 0.0719209 0.0747626 
-0.0439605 0.0693456 0.0707734 -0.042415 0.067194 0.0679236 -0.0408187 0.0653209 0.0656634 
-0.0391487 0.0638516 0.0642581 -0.0376302 0.0626555 0.0631763 -0.0362978 0.0617948 0.0624916 
-0.0351843 0.0612041 0.0616612 -0.0406345 0.0801435 0.11179 -0.0444544 0.0767136 0.103567 
-0.0474538 0.0732962 0.0957525 -0.0484018 0.0699098 0.088957 -0.0487274 0.066656 0.0828253 
-0.0477693 0.063676 0.0780626 -0.0464708 0.0609218 0.0740584 -0.0445862 0.0585567 0.0713608 
-0.0426505 0.0564733 0.0693371 -0.0406406 0.0547983 0.0682905 -0.038788 0.0534287 0.0676245 
-0.0371286 0.0524336 0.0674254 -0.0356746 0.0517719 0.067085 -0.0438991 0.0717547 0.116473 
-0.047827 0.0684065 0.107622 -0.0508702 0.0650331 0.0992525 -0.051702 0.0615967 0.0920852 
-0.0518641 0.0582557 0.0856722 -0.0506451 0.0551117 0.0808152 -0.0490593 0.0521723 0.076808 
-0.0468419 0.0495855 0.0742645 -0.0445662 0.0472868 0.0724746 -0.0422059 0.0454059 0.0717776 
-0.0400023 0.0438691 0.0715172 -0.037991 0.0427546 0.0717928 -0.0361665 0.0420435 0.071937 
-0.046872 0.0618894 0.118361 -0.0510165 0.058735 0.109063 -0.0542153 0.0554953 0.100306 
-0.0550503 0.0520422 0.0928986 -0.0551573 0.0486298 0.0863159 -0.0537627 0.0453014 0.0814332 
-0.0519527 0.0421522 0.0774691 -0.0494275 0.0393117 0.0750872 -0.0468096 0.0367784 0.073521 
-0.0440577 0.0346907 0.0731376 -0.0414367 0.0330123 0.0732439 -0.0389766 0.0318362 0.0739512 
-0.0366649 0.0311597 0.0745588 -0.0496924 0.0520268 0.119073 -0.0541117 0.0490585 0.109425 
-0.0575238 0.0459381 0.100369 -0.0584179 0.0424374 0.0927918 -0.0585177 0.0389203 0.0860985 
-0.0569794 0.0353693 0.0812291 -0.0549646 0.0319761 0.0773371 -0.0521292 0.0288547 0.0751284 
-0.049154 0.0260703 0.0737879 -0.045976 0.0237745 0.0737062 -0.0428946 0.021968 0.0741593 
-0.0399318 0.020762 0.0752688 -0.0370795 0.0201644 0.0763081 -0.0192151 0.110392 0.0497488 
-0.0227661 0.10796 0.0461846 -0.0259904 0.105555 0.0425439 -0.0283974 0.10322 0.038712 
-0.0304842 0.101014 0.0348658 -0.0319105 0.0990704 0.0309901 -0.0330609 0.0973134 0.0271542 
-0.0337364 0.0958772 0.023387 -0.0342056 0.0946276 0.0197037 -0.034376 0.0936486 0.0161421 
-0.0344246 0.0927958 0.0126938 -0.0343236 0.0920982 0.00938457 -0.0341855 0.0914216 0.00618855 
-0.0214893 0.111079 0.0567492 -0.0251041 0.108495 0.0527844 -0.0283381 0.105951 0.0487741 
-0.0306204 0.103508 0.0446501 -0.0325483 0.101212 0.0405622 -0.0337452 0.0992202 0.0365487 
-0.0346602 0.0974356 0.0326316 -0.0350896 0.0960089 0.0288807 -0.0353363 0.0947881 0.0252597 
-0.0353182 0.0938657 0.0218271 -0.0352258 0.093083 0.0185244 -0.035042 0.0924715 0.0153811 
-0.0348791 0.0918867 0.0123216 -0.0237882 0.111748 0.0638006 -0.0274645 0.109005 0.0594289 
-0.0307055 0.106315 0.0550436 -0.0328588 0.10376 0.0506246 -0.0346234 0.101371 0.0462933 
-0.0355862 0.0993263 0.0421427 -0.0362611 0.0975119 0.0381466 -0.0364401 0.0960935 0.0344163 
-0.0364605 0.0949009 0.030863 -0.0362507 0.0940358 0.0275662 -0.0360148 0.093324 0.0244162 
-0.0357466 0.0928006 0.0214464 -0.0355578 0.0923098 0.0185303 -0.0266677 0.111985 0.0720465 
-0.030352 0.108928 0.0671209 -0.0335338 0.105947 0.062236 -0.0354591 0.10316 0.0574529 
-0.0369569 0.100575 0.0528382 -0.0375729 0.098406 0.0485708 -0.0378991 0.0965061 0.0445455 
-0.0377263 0.0950691 0.0409371 -0.0374302 0.0938936 0.0375762 -0.0369552 0.0930972 0.0345744 
-0.0365177 0.092482 0.0317448 -0.0361259 0.0920891 0.0291265 -0.035886 0.0917479 0.0265172 
-0.0296001 0.112001 0.0803535 -0.0332883 0.108631 0.0748586 -0.0364056 0.105362 0.0694607 
-0.038096 0.102344 0.0643055 -0.0393197 0.0995612 0.0594019 -0.0395811 0.0972653 0.0550171 
-0.0395511 0.0952757 0.0509644 -0.0390193 0.0938136 0.0474836 -0.0384 0.0926478 0.0443229 
-0.037654 0.0919116 0.0416262 -0.0370094 0.0913844 0.0391282 -0.0364892 0.0911137 0.036874 
-0.0361934 0.090915 0.0345834 -0.033127 0.109527 0.0893486 -0.0367721 0.105875 0.083111 
-0.0397686 0.102339 0.0770506 -0.0411439 0.0990925 0.0714333 -0.042011 0.0961034 0.066178 
-0.0418303 0.0936451 0.0616696 -0.0413593 0.0915168 0.0576091 -0.0403885 0.0899569 0.0543202 
-0.0393716 0.0887187 0.0514448 -0.0382879 0.0879468 0.0491688 -0.0373749 0.0874122 0.0471288 
-0.0366714 0.0871691 0.0453786 -0.0362661 0.0870342 0.0435413 -0.0367123 0.106635 0.0983056 
-0.0403117 0.102719 0.0913068 -0.0431844 0.0989321 0.084568 -0.0442405 0.0954677 0.078479 
-0.044747 0.0922787 0.0728648 -0.0441198 0.0896579 0.06823 -0.0432034 0.0873878 0.0641608 
-0.0417888 0.0857217 0.0610658 -0.0403687 0.0844004 0.0584789 -0.0389408 0.0835793 0.0566288 
-0.0377516 0.0830239 0.0550535 -0.0368553 0.0827946 0.0538155 -0.0363288 0.0827121 0.052441 
-0.0407156 0.100747 0.106991 -0.044251 0.0966995 0.0990976 -0.0469785 0.0927764 0.0915657 
-0.0476866 0.0891652 0.0849365 -0.0478029 0.0858243 0.0789111 -0.0466987 0.0830407 0.0741311 
-0.0453047 0.0806061 0.0700463 -0.0434115 0.0787725 0.0671589 -0.0415489 0.0772928 0.0648841 
-0.0397305 0.0763261 0.0634976 -0.038209 0.0756528 0.0624343 -0.0370518 0.0753395 0.0617678 
-0.0363206 0.0752277 0.060924 -0.0447228 0.0942831 0.11535 -0.0482018 0.0901446 0.106565 