# vtk DataFile Version 2.0
vtk output
ASCII
DATASET RECTILINEAR_GRID
DIMENSIONS 13 13 13
X_COORDINATES 13 float
-7.5 -7.29167 -7.08333 -6.875 -6.66667 -6.45833 -6.25 -6.04167 -5.83333 
-5.625 -5.41667 -5.20833 -5 
Y_COORDINATES 13 float
0 0.208333 0.416667 0.625 0.833333 1.04167 1.25 1.45833 1.66667 
1.875 2.08333 2.29167 2.5 
Z_COORDINATES 13 float
2.5 2.70833 2.91667 3.125 3.33333 3.54167 3.75 3.95833 4.16667 
4.375 4.58333 4.79167 5 
POINT_DATA 2197
VECTORS grad float
-0.00357081 0.139205 -0.0383089 0.00579828 0.143324 -0.037905 0.0154667 0.146193 -0.0371369 
0.0258837 0.145939 -0.0354582 0.0359985 0.144301 -0.0333632 0.0454899 0.139808 -0.0304097 
0.0540785 0.13426 -0.0271323 0.0611125 0.126897 -0.0232973 0.0669043 0.119068 -0.0193362 
0.0708952 0.110565 -0.0151925 0.0736318 0.102142 -0.0111384 0.074829 0.0938179 -0.00719417 
0.0749872 0.0859204 -0.00350648 0.00132721 0.126087 -0.0363044 0.00887528 0.129183 -0.0352647 
0.0166571 0.131329 -0.0339573 0.0250233 0.1311 -0.0319803 0.0331954 0.129817 -0.0297078 
0.0409672 0.126361 -0.0268259 0.048094 0.122053 -0.0237129 0.0541098 0.116276 -0.0202021 
0.0591784 0.110046 -0.0166003 0.0628734 0.10316 -0.0128667 0.0655411 0.0962321 -0.00920859 
0.0669479 0.089252 -0.00564326 0.0674375 0.082521 -0.0023008 0.0044595 0.114446 -0.0355649 
0.0108146 0.116958 -0.0340624 0.0173755 0.118701 -0.0323395 0.0244511 0.11852 -0.0300659 
0.0313916 0.117489 -0.0275587 0.0380535 0.114707 -0.0245701 0.0442089 0.111221 -0.0214045 
0.049492 0.106526 -0.0179341 0.0539967 0.101429 -0.014404 0.0573727 0.0957498 -0.0107874 
0.059865 0.089987 -0.00725706 0.0612726 0.0841211 -0.00383246 0.0618521 0.0784011 -0.000635057 
0.00752725 0.102886 -0.0348483 0.0127146 0.104831 -0.0328894 0.0180811 0.106182 -0.030756 
0.0238956 0.10605 -0.0281864 0.0296325 0.105269 -0.0254433 0.0352095 0.103147 -0.0223424 
0.0404149 0.100469 -0.019117 0.0449803 0.0968353 -0.0156769 0.0489313 0.0928519 -0.0122078 
0.0519918 0.0883618 -0.00869629 0.054308 0.0837486 -0.00528189 0.0557109 0.0789843 -0.00198659 
0.056372 0.0742656 0.00107604 0.00960542 0.0925662 -0.034483 0.0140128 0.0941884 -0.0321664 
0.0185909 0.0953301 -0.0296962 0.0235953 0.0952707 -0.0268422 0.0285585 0.0946907 -0.0238435 
0.0334364 0.093037 -0.0205463 0.0380196 0.0909362 -0.017151 0.0420953 0.0880655 -0.0135869 
0.0456495 0.084904 -0.0100123 0.0484475 0.081321 -0.00642243 0.0505788 0.0776148 -0.00294423 
0.0518918 0.0737572 0.000396966 0.0525073 0.0698903 0.00348256 0.0116209 0.0823566 -0.0341 
0.0152764 0.0836706 -0.0314332 0.0190949 0.0846129 -0.0286322 0.0233211 0.0846262 -0.025496 
0.0275412 0.0842436 -0.0222415 0.0317485 0.0830446 -0.0187433 0.0357349 0.0815037 -0.0151713 
0.039341 0.0793742 -0.0114723 0.0425137 0.0770125 -0.00777966 0.0450581 0.0743141 -0.00409609 
0.0470083 0.0714945 -0.0005378 0.0482293 0.068526 0.00286675 0.0487922 0.0654965 0.00599223 
0.0130844 0.0731159 -0.0335606 0.0162344 0.0742493 -0.0306106 0.0195492 0.0750839 -0.0275319 
0.0232758 0.0751718 -0.0241314 0.0270225 0.0749486 -0.0206201 0.0308106 0.0740835 -0.0168802 
0.0344238 0.0729555 -0.0130708 0.0377358 0.0713745 -0.00914204 0.0406629 0.0696174 -0.00522006 
0.0430319 0.0676051 -0.00130798 0.0448353 0.0654932 0.00247369 0.0459447 0.0632588 0.00609533 
0.0463932 0.0609404 0.00940949 0.0144939 0.064005 -0.0329539 0.0171646 0.0649666 -0.0297299 
0.0200026 0.0656986 -0.0263811 0.0232589 0.0658569 -0.0227205 0.026561 0.0657844 -0.0189541 
0.0299575 0.0652361 -0.0149697 0.0332232 0.0645003 -0.0109173 0.0362636 0.0634414 -0.00674812 
0.0389641 0.0622617 -0.00258295 0.0411717 0.0609068 0.00157634 0.0428376 0.0594752 0.00560314 
0.0438385 0.0579497 0.00946735 0.0441696 0.0563208 0.0129967 0.0155786 0.0556728 -0.0319444 
0.0179277 0.0565157 -0.0285007 0.0204517 0.0571757 -0.0249277 0.0234127 0.0573788 -0.0210312 
0.0264423 0.057406 -0.0170208 0.0296136 0.0570706 -0.0127752 0.0326862 0.0566034 -0.00844588 
0.0355891 0.0559091 -0.00397254 0.0381768 0.0551428 0.000519305 0.0403076 0.0542721 0.00503796 
0.0418913 0.0533576 0.00944034 0.0428035 0.0523895 0.0137 0.0429983 0.0513197 0.0176036 
0.0166115 0.0474932 -0.0308282 0.0186606 0.0482186 -0.0271761 0.0208925 0.0488044 -0.0233888 
0.0235816 0.0490408 -0.0192638 0.0263621 0.0491519 -0.0150144 0.0293312 0.0490045 -0.0105086 
0.0322332 0.0487767 -0.00590011 0.0350196 0.0484105 -0.00111499 0.0375141 0.0480183 0.00371573 
0.0395854 0.0475885 0.00861256 0.0411008 0.0471477 0.013415 0.0419341 0.0466933 0.0181015 
0.0419962 0.0461425 0.0224146 0.0174142 0.0399914 -0.0292378 0.0192588 0.0406054 -0.025427 
0.0212966 0.0411066 -0.0214703 0.0238178 0.0413257 -0.0171489 0.0264527 0.0414503 -0.0126835 
0.0293223 0.04138 -0.00792157 0.032153 0.041262 -0.00302406 0.0349168 0.0410619 0.00210684 
0.037405 0.0408693 0.00733069 0.0394937 0.0406877 0.0126893 0.0410031 0.0405273 0.0180004 
0.0418013 0.0403928 0.0232533 0.0417457 0.0401824 0.0281331 0.0181547 0.0326761 -0.0275233 
0.0198087 0.033173 -0.0235679 0.0216664 0.0335803 -0.0194552 0.0240333 0.0337635 -0.0149491 
0.0265361 0.033878 -0.0102786 0.0293191 0.033851 -0.0052688 0.0320914 0.0338031 -8.8521e-05 
0.0348452 0.0337192 0.00538543 0.03734 0.0336703 0.0110033 0.0394595 0.0336722 0.0168299 
0.0409761 0.0337233 0.022662 0.0417528 0.0338347 0.0285009 0.0415907 0.0338921 0.033974 
0.0186802 0.0260051 -0.0253806 0.0201916 0.0263654 -0.0213287 0.021917 0.0266463 -0.017106 
0.0241772 0.0267291 -0.0124563 0.0265945 0.0267521 -0.00761762 0.0293356 0.0266517 -0.00238885 
0.0320937 0.0265368 0.00305254 0.034881 0.0263969 0.00886007 0.0374272 0.0262985 0.0148752 
0.0396236 0.0262605 0.0211913 0.0411938 0.0262851 0.0275868 0.0419955 0.0263866 0.0340798 
0.0417653 0.0264611 0.0402378 -0.00346119 0.14167 -0.0292976 0.0064466 0.146448 -0.0287366 
0.0166818 0.149868 -0.0278801 0.0277355 0.149894 -0.0262846 0.0384557 0.1484 -0.0243431 
0.0484879 0.143773 -0.0216879 0.0575285 0.137994 -0.0187595 0.0648612 0.130232 -0.0153604 
0.0708406 0.121976 -0.011856 0.0748575 0.113004 -0.0081987 0.0775254 0.10414 -0.00462441 
0.0785379 0.0954063 -0.0011519 0.0784527 0.0871429 0.00208701 0.00209934 0.127508 -0.0279474 
0.0100617 0.131133 -0.0268497 0.0182707 0.133739 -0.0255334 0.0270962 0.133792 -0.0236709 
0.0357032 0.132703 -0.0215631 0.0438593 0.129257 -0.0189497 0.0513079 0.124886 -0.0161426 
0.0575379 0.118922 -0.0130021 0.0627387 0.112474 -0.00978741 0.0664472 0.105324 -0.00646499 
0.0690511 0.0981343 -0.00321493 0.0702995 0.0908963 -5.36424e-05 0.0705746 0.0839228 0.00290071 
0.00569678 0.115426 -0.0276232 0.0124066 0.118398 -0.026138 0.0193271 0.120549 -0.0244707 
0.0267743 0.120648 -0.0223479 0.0340634 0.119832 -0.0200293 0.0410265 0.117129 -0.0173067 
0.047431 0.113668 -0.014434 0.0528735 0.108903 -0.011303 0.0574683 0.10371 -0.00812306 
0.0608337 0.0978949 -0.0048721 0.0632457 0.0919914 -0.00170274 0.0644876 0.0859794 0.00136652 
0.0648449 0.0801139 0.00422237 0.00922254 0.103449 -0.0273145 0.0147073 0.105784 -0.0254471 
0.0203682 0.107493 -0.0234325 0.0264695 0.107639 -0.02105 0.0324717 0.107093 -0.0185192 
0.0382697 0.105118 -0.0156823 0.0436539 0.102551 -0.0127375 0.0483254 0.0989622 -0.00960674 
0.0523255 0.0950014 -0.00645148 0.0553518 0.0905008 -0.00326071 0.0575711 0.085866 -0.000160836 
0.0588002 0.0810662 0.00282749 0.0592302 0.0762985 0.00559499 0.0116492 0.0930658 -0.0272438 
0.0163303 0.0950344 -0.0250739 0.0211748 0.0965011 -0.022771 0.0264277 0.0967132 -0.0201358 
0.0316179 0.096376 -0.0173723 0.0366786 0.0949059 -0.0143444 0.0414065 0.0929638 -0.0112267 
0.0455608 0.090209 -0.00795422 0.0491403 0.0871488 -0.00466911 0.0518861 0.0836456 -0.00136564 
0.053902 0.0800094 0.00183651 0.0550221 0.07621 0.00491432 0.0553805 0.0723817 0.00774892 
0.0140051 0.0828148 -0.027151 0.0179128 0.0844329 -0.0246844 0.0219723 0.085668 -0.0220977 
0.0264115 0.085946 -0.0192106 0.0308234 0.0858128 -0.0162136 0.0351788 0.0848316 -0.0129898 
0.0392788 0.0834962 -0.00969197 0.0429387 0.081551 -0.00626691 0.0461153 0.0793671 -0.00283901 
0.0485913 0.076837 0.00059298 0.0504087 0.0741783 0.00391453 0.0514179 0.0713616 0.00710055 
0.051697 0.0684588 0.0100206 0.0157388 0.0737261 -0.0268638 0.019138 0.075131 -0.0241515 
0.0226894 0.0762323 -0.0213199 0.0266208 0.0765749 -0.0181903 0.0305519 0.0766003 -0.0149516 
0.034482 0.0759717 -0.011488 0.0382047 0.0750786 -0.00794715 0.04157 0.0737299 -0.00427332 
0.0445003 0.0722094 -0.000588882 0.0468 0.0704399 0.00311091 0.0484627 0.0685713 0.00670253 
0.0493437 0.0665811 0.0101614 0.0494758 0.0644823 0.0133288 0.0174093 0.0647818 -0.0265103 
0.0203284 0.0659829 -0.0235591 0.0234008 0.0669557 -0.0204882 0.0268566 0.0673579 -0.0171182 
0.0303387 0.0675323 -0.013638 0.033875 0.0672372 -0.00993061 0.03725 0.0667637 -0.00613965 
0.0403472 0.065983 -0.00220487 0.0430542 0.0650967 0.00175207 0.0451956 0.064057 0.00574112 
0.046716 0.0629504 0.0096282 0.0474745 0.0617616 0.0133901 0.047457 0.0604462 0.016837 
0.0187013 0.0567043 -0.0257597 0.0213088 0.0577577 -0.0226098 0.0240779 0.0586336 -0.0193323 
0.0272511 0.0590657 -0.015736 0.0304759 0.0593317 -0.0120156 0.033807 0.0592553 -0.00803963 
0.0370121 0.0590658 -0.00395608 0.0399999 0.0586815 0.000312715 0.0426216 0.0582529 0.00463795 
0.0447125 0.0577599 0.009045 0.0461652 0.0572464 0.0133799 0.0468347 0.0567078 0.0176264 
0.046652 0.0560518 0.0215445 0.0199309 0.0487833 -0.0249082 0.0222497 0.0496903 -0.0215683 
0.0247392 0.0504666 -0.0180918 0.0276558 0.050916 -0.014274 0.0306495 0.051256 -0.0103166 
0.0338023 0.0513707 -0.00607107 0.036864 0.0514327 -0.0016905 0.0397687 0.0514041 0.0029226 
0.0423302 0.0513894 0.00763196 0.0443941 0.0513947 0.0124809 0.0457988 0.0514261 0.0172952 
0.0463947 0.0514895 0.0220671 0.0460531 0.0514494 0.0265037 0.0208829 0.0415577 -0.0236084 
0.0230147 0.0423243 -0.0201166 0.0253303 0.0429891 -0.0164748 0.0281054 0.0433996 -0.0124581 
0.0309847 0.0437356 -0.00827723 0.0340787 0.0439182 -0.00375765 0.0371155 0.0440875 0.000939578 
0.0400536 0.0442339 0.00594273 0.0426664 0.0444383 0.0111066 0.0448077 0.0447268 0.0165035 
0.0462526 0.0450887 0.0219374 0.0468427 0.0455405 0.0274167 0.0463703 0.0459226 0.0325815 
0.0217598 0.0345102 -0.0221928 0.0237189 0.0351304 -0.0185607 0.0258752 0.0356738 -0.0147647 
0.028524 0.036025 -0.0105591 0.031304 0.0363308 -0.00616374 0.0343543 0.0365433 -0.00137702 
0.0373817 0.0367746 0.00363213 0.0403694 0.0370384 0.00902433 0.0430511 0.0373963 0.0146463 
0.0452891 0.0378909 0.0206015 0.0467938 0.0384997 0.0266742 0.0473987 0.0392488 0.032891 
0.0468119 0.039963 0.038825 0.022377 0.0280783 -0.0203776 0.0242133 0.0285318 -0.0166448 
0.0262605 0.0289189 -0.0127328 0.0288351 0.0291403 -0.00837289 0.0315679 0.0293256 -0.00379417 
0.034627 0.0294366 0.00123583 0.0376988 0.0295736 0.00654052 0.0407924 0.0297554 0.0123183 
0.0436033 0.0300401 0.018411 0.0460041 0.030474 0.0249603 0.047637 0.0310417 0.0317379 
0.0483274 0.0317735 0.0387958 0.0476832 0.0325078 0.0456408 -0.00296954 0.142754 -0.0192591 
0.00729767 0.148038 -0.0184609 0.0179169 0.151894 -0.0174569 0.0294161 0.152176 -0.0159382 
0.0405643 0.150841 -0.0141697 0.0509884 0.146168 -0.0118856 0.0603577 0.140265 -0.00939923 
0.06791 0.132247 -0.00656434 0.0740244 0.12371 -0.00365237 0.0780537 0.114422 -0.000628635 
0.0806582 0.105257 0.00232391 0.0815142 0.0962425 0.00518911 0.0812221 0.0877265 0.0078576 
0.00307935 0.127902 -0.0190855 0.0113254 0.131929 -0.0178664 0.0198293 0.13489 -0.0164919 
0.0289779 0.135187 -0.0147288 0.0378927 0.134279 -0.0127881 0.046325 0.130883 -0.0104812 
0.0540045 0.12651 -0.00803301 0.0603876 0.120453 -0.00534161 0.0656784 0.113887 -0.00260026 
0.0693855 0.106582 0.00021352 0.0719253 0.0992378 0.00295915 0.0730325 0.0918447 0.00562117 
0.0731171 0.0847224 0.00810028 0.00701947 0.11557 -0.0194824 0.0139797 0.11889 -0.017955 
0.0211554 0.121358 -0.0162946 0.0288696 0.121696 -0.0143017 0.0364105 0.121074 -0.0121646 
0.0435937 0.118475 -0.00973009 0.0501798 0.115079 -0.00718527 0.0557372 0.110314 -0.00445057 
0.0603922 0.105101 -0.00168514 0.0637384 0.0992393 0.00112484 0.0660723 0.0932845 0.00385716 
0.0671638 0.0872159 0.00649416 0.0673187 0.0812891 0.00893717 0.010883 0.103358 -0.0198799 
0.0165864 0.105991 -0.0180478 0.0224644 0.10798 -0.0161043 0.0287791 0.10836 -0.013882 
0.0349794 0.108022 -0.0115474 0.0409437 0.106202 -0.00898136 0.0464619 0.103765 -0.00633467 
0.051212 0.100268 -0.00354915 0.0552435 0.0963853 -0.00075126 0.0582333 0.0919435 0.00206457 
0.0603607 0.0873598 0.00479334 0.0614298 0.0826017 0.00741531 0.0616448 0.0778602 0.00983149 
0.0135724 0.0930037 -0.020285 0.0184636 0.0952405 -0.0182057 0.0235137 0.0969651 -0.0160214 
0.0289609 0.0974094 -0.0135748 0.0343301 0.0972894 -0.0110267 0.0395383 0.0960057 -0.00826916 
0.0443837 0.0942384 -0.00544027 0.0486041 0.0916383 -0.00248848 0.0522044 0.0887285 0.000470433 
0.0549052 0.0853695 0.00343966 0.0568175 0.081874 0.00631488 0.0577618 0.0782112 0.00907473 
0.0578795 0.0745 0.0116062 0.016186 0.0827969 -0.0206561 0.0202966 0.0846548 -0.0183335 
0.024552 0.086127 -0.0159115 0.0291692 0.086635 -0.0132409 0.0337437 0.0867277 -0.0104779 
0.0382305 0.0859639 -0.00752432 0.0424343 0.0848458 -0.00450656 0.0461507 0.0831175 -0.00137832 
0.0493399 0.0811555 0.00175393 0.0517648 0.0788548 0.00489199 0.0534685 0.076427 0.00793077 
0.0542869 0.0738432 0.0108477 0.0542992 0.0711509 0.0135138 0.0181322 0.0738932 -0.0207268 
0.0217413 0.0755175 -0.0181964 0.0254948 0.0768405 -0.0155629 0.0296095 0.0774102 -0.0126717 
0.0337099 0.0776668 -0.00968281 0.0377808 0.0772777 -0.0064923 0.041619 0.0766347 -0.00322695 
0.0450561 0.0755545 0.000167293 0.0480136 0.0743204 0.00358128 0.0502756 0.0728632 0.00702389 
0.0518285 0.0713208 0.010377 0.0525113 0.0696738 0.0136202 0.052347 0.0678996 0.0165907 
0.0200096 0.0651439 -0.0207249 0.0231468 0.0665443 -0.0179914 0.0264296 0.0677234 -0.0151502 
0.0300765 0.0683493 -0.0120394 0.0337376 0.0687594 -0.0088237 0.0374279 0.0687244 -0.00539151 
0.040934 0.0685325 -0.00187075 0.0441231 0.0680702 0.0018025 0.0468768 0.0675336 0.00551559 
0.0489992 0.0668891 0.00928644 0.0504185 0.066205 0.0129827 0.050975 0.0654723 0.0165873 
0.050633 0.0645996 0.0199004 0.0214749 0.0573215 -0.020287 0.0243175 0.0585556 -0.0173788 
0.0273159 0.0596225 -0.0143519 0.0307037 0.0602714 -0.0110281 0.0341349 0.0607725 -0.00758061 
0.0376553 0.0609686 -0.00387804 0.0410317 0.0610836 -5.50672e-05 0.0441601 0.0610589 0.00397525 
0.0468778 0.0610374 0.00809169 0.0490001 0.0610207 0.012333 0.0503882 0.0610319 0.0165453 
0.050875 0.0610774 0.0207222 0.0503481 0.0610071 0.0246062 0.0228707 0.0496568 -0.0197468 
0.0254427 0.0507256 -0.0166704 0.0281819 0.0516769 -0.0134634 0.0313389 0.0523347 -0.00993002 
0.0345692 0.0529072 -0.00625229 0.0379508 0.0533039 -0.00227693 0.0412291 0.0536899 0.00185444 
0.0443294 0.0540577 0.00625444 0.0470439 0.054503 0.0107937 0.0491988 0.0550607 0.0155349 
0.0505846 0.0557147 0.0203036 0.0510263 0.0564869 0.0251058 0.0503263 0.0571739 0.0296241 
0.0239574 0.042693 -0.018752 0.0263655 0.0436006 -0.0155362 0.0289575 0.0444215 -0.0121742 
0.0320095 0.0450254 -0.00844637 0.0351686 0.0455827 -0.00454515 0.0385489 0.046044 -0.000286238 
0.0418695 0.0465416 0.00418092 0.0450871 0.0471018 0.00900671 0.0479436 0.0477986 0.0140555 
0.0502765 0.0486936 0.0194276 0.0517889 0.0497568 0.0249308 0.0522944 0.0510267 0.0305951 
0.0514738 0.0522711 0.0360288 0.0249593 0.0358988 -0.0176428 0.027218 0.0366385 -0.0142972 
0.0296779 0.0373175 -0.0107893 0.0326409 0.0378446 -0.0068757 0.0357454 0.0383572 -0.00275859 
0.0391418 0.0388396 0.0017782 0.0425235 0.0393964 0.00657795 0.0458797 0.0400814 0.0118306 
0.0489025 0.0409515 0.0173961 0.0514419 0.0420898 0.0234155 0.0531117 0.0434591 0.0296832 
0.0537145 0.0451118 0.0362558 0.0528 0.0467985 0.0426707 0.0256682 0.0296904 -0.0161387 
0.0278279 0.0302387 -0.0126962 0.0302076 0.0307364 -0.00907436 0.033137 0.0311077 -0.00500441 
0.036244 0.0314733 -0.000697676 0.039717 0.0318269 0.0040974 0.0432249 0.0322622 0.00921868 
0.0467931 0.0328383 0.0149017 0.0500659 0.0336109 0.0210093 0.0529103 0.0346686 0.0277325 
0.0548439 0.0359873 0.0348679 0.0556596 0.0376265 0.0425093 0.0547431 0.0393572 0.0501318 
-0.00225209 0.142878 -0.00910766 0.00828077 0.148584 -0.00805191 0.0191866 0.152812 -0.00688381 
0.0310247 0.153341 -0.00543482 0.0425007 0.152177 -0.00383793 0.0532297 0.147518 -0.00193601 
0.062855 0.141567 9.17616e-05 0.0705797 0.133392 0.00233625 0.0767981 0.124675 0.00462688 
0.0808321 0.115172 0.00698439 0.0833778 0.1058 0.00928339 0.0840966 0.0965895 0.0115106 
0.0836223 0.0878942 0.0135815 0.00419429 0.127585 -0.0102226 0.0126568 0.131949 -0.00886773 
0.0213865 0.135216 -0.00742305 0.030784 0.135742 -0.00575389 0.0399363 0.135014 -0.00397857 
0.0485829 0.131702 -0.00198432 0.0564408 0.127371 9.49706e-05 0.0629404 0.121282 0.00232073 
0.068296 0.114663 0.00456983 0.0719926 0.107274 0.00685279 0.074468 0.0998412 0.00907181 
0.0754447 0.0923553 0.0112124 0.0753543 0.0851399 0.0131962 0.00842042 0.11514 -0.0114114 
0.0155775 0.118756 -0.00982865 0.0229536 0.121499 -0.00816423 0.0308773 0.12206 -0.00629568 
0.0386156 0.121629 -0.00433782 0.0459712 0.119153 -0.00219575 0.0526981 0.115851 1.34495e-05 
0.0583423 0.11113 0.00233823 0.0630376 0.105945 0.00467318 0.0663572 0.100089 0.00702286 
0.0686127 0.0941335 0.00929831 0.0695622 0.0880576 0.0114827 0.0695272 0.0821144 0.0134941 
0.0125663 0.102829 -0.0125841 0.0184479 0.105718 -0.0107757 0.0245023 0.107952 -0.00889314 
0.0309889 0.108549 -0.00682546 0.0373482 0.10841 -0.00468435 0.0434449 0.106753 -0.00239179 
0.0490684 0.104462 -4.89855e-05 0.0538766 0.101083 0.00238036 0.0579254 0.0973087 0.00480754 
0.0608731 0.0929613 0.00723158 0.0629083 0.0884648 0.00957148 0.0638237 0.0837852 0.0118081 
0.0638332 0.0791048 0.0138552 0.015481 0.0925756 -0.0135094 0.0205489 0.0950461 -0.0115092 
0.0257715 0.0969993 -0.00943398 0.0313806 0.0976596 -0.00717091 0.0368986 0.097747 -0.0048358 
0.0422285 0.0966529 -0.00235209 0.04717 0.0950692 0.000181224 0.0514422 0.0926426 0.00279996 
0.0550538 0.0899058 0.00541737 0.0577075 0.086719 0.00803283 0.0595181 0.0833943 0.0105601 
0.0602938 0.0799001 0.0129791 0.0601799 0.0763379 0.0151857 0.0183161 0.0824824 -0.0143868 
0.0226032 0.084552 -0.0121972 0.0270285 0.0862368 -0.00993082 0.0317996 0.0869595 -0.0074722 
0.0365149 0.0872673 -0.00494165 0.0411154 0.0867197 -0.00226273 0.0454089 0.0858223 0.000466975 
0.0491734 0.0843223 0.00328414 0.0523708 0.0825979 0.00610302 0.0547459 0.0805479 0.00892438 
0.0563401 0.0783756 0.0116556 0.0569762 0.0760532 0.0142761 0.0567306 0.0736012 0.0166619 
0.0204494 0.0737998 -0.0148426 0.0242456 0.07562 -0.0124839 0.0281797 0.0771439 -0.0100404 
0.0324587 0.0779271 -0.00738485 0.0367117 0.0784049 -0.00464625 0.0409114 0.078253 -0.0017364 
0.0448563 0.0778622 0.00124149 0.0483624 0.0770599 0.00433655 0.0513479 0.0761266 0.00745598 
0.0535787 0.0750031 0.0106107 0.0550307 0.0738136 0.0136916 0.0555271 0.0725429 0.0166818 
0.0550776 0.0711301 0.0194191 0.0225097 0.0652789 -0.0152175 0.0258457 0.0668593 -0.0126925 
0.0293212 0.0682276 -0.010074 0.0331452 0.0690652 -0.00722154 0.0369736 0.0697019 -0.00427326 
0.0408112 0.069924 -0.00112739 0.0444453 0.0700148 0.00210681 0.0477291 0.0698792 0.00549309 
0.0505361 0.0697062 0.0089312 0.0526518 0.0694791 0.0124445 0.0539841 0.0692474 0.0159064 
0.0543551 0.0690101 0.0193054 0.0537024 0.0686261 0.0224374 0.0241312 0.0577276 -0.0151068 
0.027192 0.0591267 -0.0124327 0.0304045 0.0603705 -0.00965156 0.0339962 0.0612262 -0.00660255 
0.0376258 0.0619549 -0.00343481 0.0413338 0.0624216 -2.22316e-05 0.0448841 0.0628436 0.00351701 
0.0481627 0.0631884 0.00727437 0.0509912 0.0635917 0.0111401 0.053167 0.0640798 0.0151629 
0.0545144 0.0646565 0.0191943 0.0548452 0.0653417 0.0232364 0.0539943 0.065925 0.0270225 
0.0256774 0.0503335 -0.0148904 0.0284878 0.0515516 -0.0120718 0.0314638 0.0526668 -0.00913186 
0.0348538 0.053525 -0.00588833 0.0383167 0.0543243 -0.00250137 0.0419301 0.0550022 0.00118142 
0.0454334 0.0557163 0.00503323 0.0487468 0.0564924 0.00917609 0.0516382 0.0574193 0.0134919 
0.0539178 0.0585649 0.0180585 0.0553207 0.0598942 0.0227074 0.055648 0.0614487 0.0274573 
0.0546186 0.0629559 0.0319764 0.0268883 0.0436381 -0.0142046 0.0295592 0.044677 -0.0112617 
0.0324167 0.0456452 -0.00817998 0.0357406 0.0464365 -0.00475094 0.0391791 0.0472113 -0.00114572 
0.042854 0.047952 0.00282286 0.0464741 0.048784 0.00702063 0.0499997 0.0497732 0.0116131 
0.0531382 0.0509898 0.0164791 0.0557156 0.0525363 0.0217418 0.0573541 0.0543705 0.0272211 
0.0578403 0.0565578 0.0329663 0.0567196 0.0587957 0.0385691 0.0280058 0.0371029 -0.0134038 
0.0305519 0.0379548 -0.0103443 0.0333061 0.038763 -0.00712832 0.0365809 0.039462 -0.0035209 
0.040013 0.0401791 0.000296299 0.0437694 0.0409337 0.00454616 0.0475289 0.041824 0.00908813 
0.0512937 0.0429481 0.0141331 0.0547121 0.0443626 0.0195602 0.0576283 0.0461982 0.0255413 
0.0595482 0.0484127 0.031892 0.0602457 0.0510922 0.0386963 0.0590758 0.0539184 0.0454757 
0.0288006 0.0311213 -0.0122059 0.0312725 0.0317592 -0.00905627 0.0339767 0.032363 -0.00573196 
0.037261 0.0328814 -0.00197081 0.0407486 0.0334263 0.00203668 0.0446553 0.0340257 0.00655225 
0.0486322 0.0347682 0.0114323 0.05273 0.0357571 0.0169402 0.0565413 0.0370522 0.022966 
0.0599373 0.0387911 0.0297427 0.0622975 0.0409551 0.0371062 0.0633865 0.0436408 0.0451899 
0.0623137 0.046564 0.0534667 -0.00102283 0.140826 0.00129985 0.00956314 0.146763 0.00265921 
0.0205347 0.151218 0.00402895 0.0324703 0.151973 0.00542464 0.044047 0.15101 0.00685271 
0.0548833 0.146502 0.00834754 0.0646004 0.140672 0.00987906 0.07239 0.132564 0.0114738 
0.0786418 0.123893 0.0130776 0.0826638 0.114407 0.0146948 0.0851607 0.105043 0.0162682 
0.085786 0.0958275 0.0177878 0.0851856 0.0871191 0.0191995 0.00561504 0.125655 -0.00135783 
0.0141419 0.130212 0.000165669 0.0229406 0.133673 0.00170758 0.0324187 0.134393 0.00329553 
0.0416494 0.133847 0.00490945 0.0503699 0.130692 0.00657695 0.058287 0.1265 0.00826466 
0.0648208 0.120521 0.00998717 0.0701836 0.113997 0.0117013 0.0738487 0.106681 0.0134031 
0.0762591 0.0993113 0.0150453 0.0771297 0.0918738 0.0166141 0.0768997 0.0846911 0.0180573 
0.00999876 0.113411 -0.00349855 0.0172312 0.117205 -0.00183078 0.0246837 0.120128 -0.000137558 
0.0326863 0.120875 0.00161932 0.0404987 0.120625 0.00340323 0.0479185 0.118317 0.00524289 
0.0546943 0.115175 0.00709884 0.0603609 0.110598 0.00898283 0.0650519 0.105549 0.0108511 
0.0683281 0.0998159 0.0126967 0.0705045 0.093976 0.0144703 0.0713311 0.0880046 0.0161558 
0.0711343 0.082147 0.0176931 0.0143012 0.101305 -0.00560285 0.0202694 0.104356 -0.00379136 
0.026408 0.106757 -0.00194728 0.0329725 0.107534 -2.16822e-05 0.0394024 0.107575 0.00193241 
0.0455547 0.106098 0.00394527 0.0512177 0.103987 0.00597119 0.056038 0.100786 0.00801959 
0.0600718 0.0971882 0.0100458 0.0629651 0.0930159 0.0120399 0.0649078 0.0886885 0.0139506 
0.0656837 0.0841709 0.0157589 0.0655089 0.0796307 0.0173965 0.0173566 0.0913182 -0.00714873 
0.0225256 0.093944 -0.00520199 0.0278455 0.0960594 -0.00321402 0.0335427 0.0968989 -0.00112295 
0.0391408 0.0971713 0.00100437 0.0445345 0.0962742 0.00320645 0.0495233 0.0948944 0.00542893 
0.0538149 0.0926836 0.00768654 0.0574167 0.0901707 0.00992774 0.0600184 0.08722 0.0121451 
0.0617318 0.0841338 0.0142768 0.0623549 0.0808813 0.0163032 0.0620302 0.0775404 0.0181356 
0.0203312 0.0814956 -0.00862894 0.0247344 0.0837133 -0.00654762 0.0292711 0.0855552 -0.00441613 
0.0341416 0.0864577 -0.00215918 0.038948 0.0869564 0.000142595 0.0436223 0.0866222 0.00253681 
0.0479732 0.0859532 0.00496027 0.051767 0.0847075 0.00743408 0.0549626 0.0832557 0.00989942 
0.0572908 0.081505 0.0123525 0.0587856 0.079644 0.0147198 0.0592577 0.0776476 0.016982 
0.0587752 0.0755035 0.0190275 0.0225942 0.0731161 -0.00953122 0.0265257 0.0750788 -0.00732123 
0.0305912 0.0767565 -0.00504941 0.0349916 0.077722 -0.00262301 0.0393595 0.0783984 -0.000135997 
0.0436606 0.0784787 0.002476 0.0476926 0.0783448 0.00513925 0.0512612 0.0778421 0.00789078 
0.0542769 0.0772421 0.010661 0.0564909 0.0765009 0.0134582 0.0578621 0.0757246 0.0161906 
0.0581991 0.0749052 0.0188431 0.0574896 0.0739369 0.0212647 0.0247824 0.0648988 -0.0103402 
0.0282738 0.066616 -0.00800282 0.0319017 0.0681345 -0.00559147 0.0358709 0.0691564 -0.00299511 
0.0398403 0.0699991 -0.000321005 0.0438102 0.0704717 0.00251345 0.0475653 0.0708478 0.00542402 
0.0509502 0.0710573 0.00846568 0.0538256 0.0712796 0.0115582 0.0559621 0.0715204 0.0147246 
0.0572394 0.071809 0.0178539 0.0574623 0.0721561 0.0209377 0.0565301 0.0723647 0.0237814 
0.0265218 0.0576552 -0.0105892 0.0297622 0.0591835 -0.00813232 0.0331542 0.0605723 -0.00558618 
0.0369256 0.061612 -0.00281688 0.0407361 0.0625516 5.55016e-05 0.0446275 0.0632846 0.00314049 
0.0483572 0.0640191 0.00634352 0.0518084 0.0647561 0.0097498 0.0547811 0.065624 0.0132697 
0.05706 0.0666818 0.0169543 0.0584213 0.0679161 0.0206727 0.0586566 0.069367 0.0244325 
0.0575277 0.0707579 0.0279758 0.0281826 0.0505642 -0.010725 0.0311975 0.0519033 -0.00815153 
0.0343812 0.0531571 -0.00547302 0.0379872 0.0541976 -0.0025319 0.0416736 0.0552109 0.000539267 
0.0455259 0.0561683 0.00387866 0.0492731 0.0572191 0.0073821 0.0528393 0.0584308 0.011168 
0.0559622 0.0598884 0.0151394 0.0584422 0.0617025 0.0193795 0.0599446 0.0638262 0.0237409 
0.0602473 0.0663299 0.028251 0.0589544 0.0688679 0.0325874 0.0294938 0.0441517 -0.0103574 
0.0323968 0.0452998 -0.00768052 0.0354947 0.0463957 -0.00488049 0.0390797 0.0473607 -0.0017725 
0.0427965 0.0483444 0.00149974 0.0467851 0.0493664 0.00511074 0.0507403 0.0505466 0.00894996 
0.054638 0.0519991 0.0131822 0.0581457 0.0537977 0.0177121 0.0610878 0.056098 0.0226735 
0.062985 0.0588607 0.0279174 0.0635999 0.0621909 0.0335081 0.0622878 0.0657192 0.0390535 
0.0307054 0.0378885 -0.00986963 0.0335111 0.0388364 -0.00709543 0.0365386 0.0397596 -0.00417987 
0.0401203 0.0406208 -0.000910899 0.0438868 0.0415378 0.00255729 0.0480345 0.0425696 0.00643637 
0.0522251 0.0438115 0.0106109 0.0564893 0.045415 0.0152941 0.0604269 0.0474473 0.0203968 
0.0638909 0.0501013 0.0261075 0.0662536 0.0533531 0.0322869 0.0672648 0.0573384 0.0390414 
0.0660039 0.061683 0.0459221 0.0315731 0.0321412 -0.0089668 0.0343319 0.032857 -0.00611618 
0.0373423 0.0335566 -0.00310586 0.0409818 0.0342159 0.000303741 0.0448649 0.0349381 0.0039502 
0.0492502 0.0357903 0.00808517 0.0537702 0.03686 0.0125932 0.0585223 0.0383042 0.0177436 
0.0630459 0.0401999 0.0234683 0.067238 0.0427503 0.0300257 0.0703104 0.0459731 0.0373233 
0.0720084 0.0500209 0.0455293 0.0710416 0.0545812 0.0541811 0.000482203 0.137596 0.0113414 
0.0110167 0.143654 0.0130011 0.0219433 0.148254 0.0145729 0.0338506 0.149209 0.015925 
0.0454078 0.148451 0.0171961 0.0562432 0.14416 0.0183003 0.0659609 0.138535 0.0193521 
0.0737535 0.130612 0.0203137 0.0799975 0.122109 0.0212465 0.0839957 0.112765 0.0221372 
0.0864483 0.103524 0.0229977 0.0870039 0.0944076 0.023821 0.0863088 0.0857747 0.0245841 
0.00720307 0.122834 0.00717322 0.0157183 0.127508 0.00886385 0.0245065 0.131101 0.0105036 
0.0339775 0.131992 0.0120162 0.0432027 0.131625 0.013476 0.0519208 0.128662 0.0148267 
0.0598317 0.124657 0.016133 0.0663525 0.118859 0.0173626 0.0716895 0.112506 0.0185512 
0.0753098 0.105346 0.0196804 0.0776538 0.0981155 0.0207533 0.0784312 0.0907978 0.021757 
0.0780818 0.0837108 0.0226659 0.0116797 0.110958 0.004088 0.0189261 0.114868 0.00584097 
0.0263913 0.117921 0.00756448 0.0344038 0.118832 0.00921437 0.042224 0.118754 0.0108296 
0.0496479 0.116634 0.0123732 0.0564206 0.113682 0.0138819 0.0620719 0.109296 0.0153304 
0.0667313 0.104434 0.0167361 0.0699523 0.0988822 0.01808 0.0720475 0.0932117 0.0193533 
0.072761 0.0873957 0.0205402 0.0724188 0.0816695 0.0216038 0.0160754 0.0992199 0.00105891 
0.022083 0.102386 0.00287527 0.0282573 0.104915 0.00468322 0.0348486 0.105848 0.0064702 
0.0413001 0.106056 0.00824053 0.0474636 0.104765 0.00997655 0.0531274 0.102846 0.0116874 
0.0579307 0.0998477 0.0133549 0.0619281 0.0964545 0.0149787 0.0647567 0.0924894 0.0165391 
0.0666042 0.0883629 0.0180156 0.0672474 0.0840381 0.0193893 0.0669011 0.079667 0.0206116 
0.0192293 0.0895928 -0.00110959 0.0244592 0.0923337 0.000786292 0.0298356 0.0945764 0.00268938 
0.0355786 0.0955736 0.00461053 0.0412164 0.0960158 0.00653114 0.0466372 0.0953133 0.00845063 
0.0516414 0.0941403 0.0103593 0.0559282 0.0921569 0.0122494 0.0595024 0.0898823 0.0141055 
0.0620436 0.0871854 0.0159121 0.0636581 0.0843557 0.0176334 0.0641355 0.0813629 0.01925 
0.0636127 0.0782608 0.0206913 0.0223025 0.080129 -0.00319484 0.0267882 0.0824615 -0.00121861 
0.0314025 0.0844308 0.000780363 0.0363384 0.0854918 0.00283621 0.0412035 0.0861639 0.00490796 
0.0459224 0.0860337 0.00701249 0.0503051 0.085587 0.00912172 0.0541086 0.084595 0.011239 
0.0572881 0.0834172 0.0133339 0.0595626 0.0819698 0.0153962 0.0609575 0.0804249 0.0173742 
0.0612728 0.0787604 0.0192488 0.0605662 0.0769313 0.0209254 0.0246651 0.072102 -0.00454759 
0.0287014 0.0741782 -0.00248369 0.0328678 0.0759832 -0.000382292 0.0373593 0.0771099 0.00181288 
0.0418132 0.0779665 0.0040434 0.0461897 0.0782657 0.00634683 0.0502859 0.0783777 0.00868013 
0.0538995 0.0781671 0.0110648 0.0569329 0.0778943 0.0134565 0.0591249 0.0775313 0.0158583 
0.0604165 0.0771659 0.0181985 0.060603 0.0767976 0.0204632 0.0596484 0.0762768 0.0225182 
0.0269523 0.0642346 -0.00579438 0.0305712 0.0660635 -0.00364274 0.0343239 0.0677087 -0.00143862 
0.0384112 0.0688943 0.000896704 0.0424958 0.0699236 0.00328781 0.0465749 0.0706301 0.00579398 
0.0504304 0.0712758 0.00835771 0.053901 0.0718166 0.0110205 0.0568341 0.0724213 0.0137247 
0.0589878 0.0731188 0.0164888 0.0602133 0.0739192 0.0192217 0.0602995 0.0748459 0.0219163 
0.0591053 0.0756476 0.0243957 0.028787 0.0573249 -0.00640547 0.0321799 0.0589605 -0.00416557 
0.0357247 0.0604728 -0.00185695 0.0396495 0.0616768 0.00062346 0.0436158 0.062808 0.00318602 
0.0476679 0.0637891 0.00591801 0.0515572 0.0648183 0.00875036 0.0551663 0.0659304 0.0117556 