# vtk DataFile Version 2.0
vtk output
ASCII
DATASET RECTILINEAR_GRID
DIMENSIONS 13 13 13
X_COORDINATES 13 float
2.5 2.70833 2.91667 3.125 3.33333 3.54167 3.75 3.95833 4.16667 
4.375 4.58333 4.79167 5 
Y_COORDINATES 13 float
2.5 2.70833 2.91667 3.125 3.33333 3.54167 3.75 3.95833 4.16667 
4.375 4.58333 4.79167 5 
Z_COORDINATES 13 float
-10 -9.79167 -9.58333 -9.375 -9.16667 -8.95833 -8.75 -8.54167 -8.33333 
-8.125 -7.91667 -7.70833 -7.5 
POINT_DATA 2197
VECTORS grad float
-0.0305161 -0.0307832 0.102593 -0.0306795 -0.0284206 0.103743 -0.0312168 -0.0264679 0.10423 
-0.0318376 -0.0246743 0.104443 -0.0326474 -0.0232413 0.104032 -0.0334603 -0.0219729 0.103353 
-0.034279 -0.0210146 0.102168 -0.0350099 -0.020209 0.100763 -0.0356024 -0.0196446 0.0990092 
-0.0360283 -0.0191918 0.0971214 -0.0362321 -0.0188879 0.095055 -0.0362278 -0.0186236 0.0929699 
-0.0359883 -0.018404 0.0908638 -0.0280643 -0.0352813 0.101698 -0.0285088 -0.0329276 0.10297 
-0.0293149 -0.030923 0.103544 -0.0301994 -0.029067 0.103825 -0.0312616 -0.0275481 0.10344 
-0.0323166 -0.0261948 0.102762 -0.0333582 -0.0251531 0.101532 -0.0342911 -0.0242731 0.100057 
-0.0350525 -0.0236483 0.0981926 -0.035613 -0.0231452 0.0961774 -0.0359058 -0.0228047 0.0939607 
-0.0359467 -0.0225066 0.0917279 -0.035703 -0.0222567 0.089477 -0.0256827 -0.0394307 0.100284 
-0.0263318 -0.03709 0.101672 -0.0273602 -0.0350323 0.102338 -0.0284721 -0.0331116 0.102693 
-0.0297732 -0.0315012 0.102339 -0.0310648 -0.0300579 0.101664 -0.0323385 -0.0289291 0.100383 
-0.033486 -0.0279735 0.0988227 -0.0344342 -0.0272916 0.0968214 -0.0351445 -0.0267456 0.0946445 
-0.0355376 -0.0263809 0.0922334 -0.0356272 -0.0260649 0.0898076 -0.0353738 -0.0258039 0.0873653 
-0.0233154 -0.0434727 0.0987225 -0.0241374 -0.0411296 0.100228 -0.0253681 -0.0390031 0.100991 
-0.026692 -0.0370018 0.101423 -0.0282273 -0.0352844 0.101105 -0.0297546 -0.0337362 0.100433 
-0.0312671 -0.0325063 0.0990965 -0.0326378 -0.0314629 0.0974422 -0.0337847 -0.030714 0.0952862 
-0.0346555 -0.0301176 0.0929248 -0.0351583 -0.0297245 0.0902895 -0.0353019 -0.029389 0.0876393 
-0.0350393 -0.0291185 0.0849723 -0.0209802 -0.0472717 0.0968282 -0.0219033 -0.0448908 0.0984521 
-0.0232912 -0.0426598 0.0993222 -0.0247925 -0.0405424 0.0998419 -0.0265508 -0.0386825 0.0995673 
-0.0283119 -0.0369952 0.0989015 -0.0300782 -0.0356329 0.0974993 -0.0316918 -0.0344738 0.0957295 
-0.0330643 -0.0336356 0.0933792 -0.0341201 -0.0329719 0.0907817 -0.0347538 -0.032541 0.0878545 
-0.034963 -0.0321823 0.0849088 -0.0346926 -0.0319055 0.0819422 -0.0186075 -0.051028 0.0948297 
-0.0195969 -0.048575 0.0965831 -0.0211198 -0.046205 0.0975755 -0.0227818 -0.0439371 0.0981975 
-0.024759 -0.0419005 0.09798 -0.0267549 -0.0400404 0.0973294 -0.0287861 -0.0385124 0.0958637 
-0.0306568 -0.0372057 0.0939727 -0.0322741 -0.0362482 0.0914103 -0.0335338 -0.0354901 0.0885499 
-0.0343165 -0.0349977 0.0852922 -0.0346052 -0.0345969 0.0820078 -0.0343354 -0.0342998 0.0786934 
-0.0161642 -0.054704 0.0926348 -0.0171542 -0.0521141 0.0945385 -0.0187706 -0.0495405 0.0956817 
-0.020562 -0.0470574 0.0964336 -0.0227503 -0.0447797 0.0962984 -0.024983 -0.042683 0.0956809 
-0.0272995 -0.0409269 0.0941557 -0.029454 -0.0394123 0.092133 -0.0313526 -0.0382791 0.089325 
-0.0328516 -0.0373752 0.0861514 -0.0338177 -0.0367772 0.0824902 -0.0342114 -0.0362985 0.0787859 
-0.0339582 -0.0359547 0.0750329 -0.013588 -0.058448 0.0903362 -0.0145389 -0.0556691 0.0924218 
-0.0162236 -0.0528396 0.0937529 -0.0181256 -0.0500892 0.0946719 -0.0205201 -0.0475179 0.0946565 
-0.022991 -0.0451317 0.094106 -0.025606 -0.0430938 0.0925482 -0.0280623 -0.0413174 0.090412 
-0.0302682 -0.039954 0.0873628 -0.032034 -0.0388514 0.083868 -0.0332131 -0.0380968 0.0797791 
-0.0337389 -0.0374947 0.0756212 -0.0335262 -0.0370651 0.0713854 -0.0108017 -0.0622993 0.0878741 
-0.0116509 -0.0592492 0.0901912 -0.0133644 -0.0560814 0.0917688 -0.0153471 -0.0529811 0.0929136 
-0.0179401 -0.0500336 0.0930774 -0.0206516 -0.0472745 0.0926473 -0.0235858 -0.0448699 0.0910994 
-0.0263726 -0.0427464 0.0888785 -0.0289266 -0.0410667 0.0855949 -0.0310027 -0.0396819 0.0817664 
-0.0324416 -0.0386901 0.0772112 -0.0331421 -0.0378929 0.0725467 -0.0330078 -0.0373157 0.0677585 
-0.00774532 -0.0663531 0.0852153 -0.00844751 -0.0629654 0.0878268 -0.0101622 -0.059396 0.0897216 
-0.0122044 -0.0558834 0.0911647 -0.0149892 -0.0524994 0.0915838 -0.0179405 -0.0493066 0.0913498 
-0.0212052 -0.0464733 0.0898863 -0.0243397 -0.0439383 0.0876499 -0.0272686 -0.0418741 0.0841932 
-0.0296873 -0.0401372 0.0800812 -0.0314256 -0.0388365 0.0750954 -0.0323435 -0.0377767 0.0699457 
-0.0323339 -0.0369891 0.0646107 -0.00432882 -0.0706767 0.0822945 -0.00482366 -0.0668634 0.0852839 
-0.00650265 -0.0628077 0.0875903 -0.00857608 -0.0587995 0.0894283 -0.0115436 -0.0548989 0.0902045 
-0.014734 -0.0511912 0.0902673 -0.018344 -0.0478466 0.0889874 -0.0218492 -0.0448141 0.0868279 
-0.0251889 -0.0422744 0.0832797 -0.0279932 -0.0400923 0.0789513 -0.0300837 -0.0383871 0.0735825 
-0.0312759 -0.0369745 0.0679762 -0.0314528 -0.0358926 0.0621016 -0.000471273 -0.0752994 0.0789422 
-0.00071268 -0.0709864 0.0824141 -0.00233323 -0.0663823 0.0852431 -0.00442072 -0.0618212 0.0875896 
-0.00756657 -0.0573577 0.0888422 -0.0109957 -0.0530906 0.0893254 -0.0149582 -0.0491929 0.0883603 
-0.0188465 -0.0456183 0.0864129 -0.0226177 -0.0425536 0.0829147 -0.0258374 -0.0398723 0.07851 
-0.0283217 -0.0377019 0.0728966 -0.0298421 -0.0358752 0.0669579 -0.0302729 -0.034437 0.0606513 
0.00388484 -0.0802601 0.0751022 0.00394896 -0.0753638 0.0791745 0.0024126 -0.070141 0.0826519 
0.00033042 -0.0649624 0.0856353 -0.00298895 -0.0598837 0.0874993 -0.00665647 -0.0550066 0.0885424 
-0.0109793 -0.0505087 0.0880404 -0.0152647 -0.0463415 0.0864579 -0.0194908 -0.0426961 0.0831697 
-0.0231595 -0.0394542 0.0788472 -0.0260849 -0.0367501 0.0731458 -0.0279944 -0.0344401 0.0670147 
-0.0287554 -0.0325755 0.0603979 -0.0292686 -0.0315457 0.105366 -0.029863 -0.0290603 0.106734 
-0.0308596 -0.0270222 0.107329 -0.0319297 -0.0251622 0.107614 -0.0331664 -0.0237057 0.107195 
-0.034377 -0.0224381 0.106481 -0.0355384 -0.0215259 0.105212 -0.0365664 -0.0207911 0.103706 
-0.0373839 -0.0203366 0.101827 -0.0379769 -0.0200101 0.0998071 -0.0382707 -0.0198545 0.0976 
-0.0382945 -0.0197359 0.0953774 -0.0380132 -0.0196592 0.0931372 -0.0266896 -0.0364225 0.1045 
-0.0275888 -0.0339488 0.105986 -0.0288821 -0.0318543 0.106667 -0.0302456 -0.0299271 0.107019 
-0.0317682 -0.0283793 0.106625 -0.0332549 -0.0270239 0.10591 -0.034674 -0.0260307 0.104592 
-0.0359357 -0.0252289 0.10301 -0.036949 -0.0247294 0.101011 -0.0376958 -0.024373 0.0988518 
-0.0380872 -0.0242074 0.0964807 -0.0381534 -0.0240827 0.0940966 -0.0378521 -0.024004 0.0916978 
-0.024191 -0.0408747 0.103069 -0.0253097 -0.0384156 0.104669 -0.0268491 -0.0362623 0.105444 
-0.0284677 -0.0342648 0.105871 -0.0302658 -0.0326205 0.105511 -0.0320279 -0.0311738 0.104799 
-0.0337222 -0.0300993 0.103426 -0.035239 -0.0292349 0.101752 -0.0364756 -0.0287021 0.0996032 
-0.037399 -0.0283336 0.0972668 -0.0379046 -0.0281841 0.0946809 -0.0380176 -0.0280833 0.0920826 
-0.0376866 -0.0280375 0.0894703 -0.0217074 -0.045188 0.101488 -0.0230109 -0.0427248 0.103203 
-0.0247753 -0.0404941 0.104077 -0.0266337 -0.0384079 0.104584 -0.0287047 -0.0366489 0.104261 
-0.0307447 -0.035094 0.103553 -0.0327262 -0.0339232 0.10212 -0.0345126 -0.0329836 0.100343 
-0.0359909 -0.0324089 0.0980226 -0.0371071 -0.0320232 0.0954808 -0.0377403 -0.0318896 0.0926434 
-0.0379064 -0.0318161 0.0897923 -0.0375445 -0.0318104 0.0869258 -0.0192577 -0.0491862 0.0995695 
-0.0206672 -0.0466765 0.1014 -0.0226091 -0.0443263 0.102384 -0.0246722 -0.0421095 0.102983 
-0.0270104 -0.0401951 0.102706 -0.029334 -0.0384935 0.102003 -0.0316301 -0.0371924 0.100496 
-0.033719 -0.0361491 0.0985891 -0.0354806 -0.0355127 0.0960494 -0.0368263 -0.0350985 0.0932389 
-0.0376172 -0.0349803 0.0900672 -0.0378511 -0.0349416 0.086876 -0.0374555 -0.0349927 0.0836628 
-0.0167612 -0.0531229 0.0975627 -0.0182386 -0.0505254 0.0995203 -0.0203347 -0.0480141 0.10063 
-0.0225864 -0.0456252 0.101334 -0.0251909 -0.0435137 0.101117 -0.0278042 -0.041624 0.100427 
-0.0304337 -0.0401519 0.0988472 -0.0328482 -0.038966 0.0968005 -0.0349229 -0.038232 0.0940165 
-0.0365261 -0.0377572 0.0909012 -0.0375007 -0.0376279 0.0873439 -0.03782 -0.0376036 0.0837555 
-0.0373984 -0.037698 0.0801319 -0.0141764 -0.0569438 0.0953903 -0.0156501 -0.0541806 0.0974954 
-0.0178569 -0.0514301 0.0987599 -0.0202665 -0.0487908 0.0995968 -0.0231358 -0.0464035 0.0994644 
-0.0260499 -0.044248 0.0988043 -0.0290485 -0.0425284 0.0971507 -0.0318319 -0.0411269 0.0949461 
-0.0342757 -0.0402274 0.0918714 -0.0361895 -0.0396318 0.0883831 -0.0373968 -0.0394413 0.0843435 
-0.0378342 -0.0393929 0.0802503 -0.0374015 -0.0395051 0.0760967 -0.0114291 -0.0608483 0.093147 
-0.012855 -0.057856 0.0954317 -0.0151454 -0.0548021 0.0968893 -0.0176934 -0.0518475 0.0978979 
-0.0208252 -0.0491184 0.0978893 -0.0240462 -0.0466293 0.0972935 -0.0274355 -0.0445921 0.0955926 
-0.0306163 -0.0429033 0.0932453 -0.0334682 -0.0417646 0.0898775 -0.0357329 -0.040976 0.0859978 
-0.0372148 -0.0406541 0.0814355 -0.0378059 -0.0405189 0.0767852 -0.0373901 -0.0405948 0.0720352 
-0.00842496 -0.064885 0.0907916 -0.00973385 -0.0615632 0.093307 -0.0120651 -0.0581045 0.0950182 
-0.0147206 -0.0547324 0.0962597 -0.0181113 -0.0515569 0.0964364 -0.0216489 -0.0486276 0.0959597 
-0.0254629 -0.0461617 0.0942531 -0.029086 -0.0440726 0.0917872 -0.0324074 -0.0425783 0.0881226 
-0.0350866 -0.0414826 0.083822 -0.0369095 -0.0409185 0.0786735 -0.0377105 -0.0405975 0.073383 
-0.0373561 -0.0405517 0.0679322 -0.00509054 -0.0691953 0.0882815 -0.00623092 -0.0654625 0.0910926 
-0.00857112 -0.0615201 0.0931315 -0.0113098 -0.0576521 0.0946821 -0.0149517 -0.0539529 0.0951258 
-0.0188059 -0.0505033 0.0948494 -0.0230597 -0.0475237 0.0932174 -0.0271484 -0.0449434 0.0907068 
-0.0309762 -0.0429936 0.0868088 -0.0341139 -0.0414862 0.0821362 -0.0363317 -0.0405688 0.0764307 
-0.037399 -0.0399562 0.0705112 -0.0371659 -0.0396881 0.0643496 -0.00131569 -0.0738705 0.085565 
-0.00221896 -0.069618 0.0887584 -0.00452576 -0.0650867 0.0912237 -0.00731498 -0.0606183 0.0931852 
-0.0111977 -0.056292 0.0940047 -0.0153687 -0.0522154 0.0940368 -0.0200824 -0.0486089 0.0925866 
-0.0246679 -0.0454164 0.0901297 -0.0290511 -0.0428776 0.0860832 -0.0327062 -0.0408189 0.0811037 
-0.0353903 -0.0394005 0.0748804 -0.0367995 -0.0383549 0.0683463 -0.0367674 -0.0377307 0.0614609 
0.0030014 -0.0789864 0.0824571 0.00238786 -0.0741198 0.0861395 0.000141694 -0.0689213 0.0891464 
-0.00267631 -0.0637796 0.0916379 -0.00679047 -0.0587668 0.0929613 -0.0112726 -0.0540038 0.0934362 
-0.0164475 -0.0497111 0.0923139 -0.0215381 -0.0458397 0.0900631 -0.0264956 -0.0426334 0.0860302 
-0.0307003 -0.0399341 0.0809059 -0.0339013 -0.0379107 0.0743263 -0.0357221 -0.0363252 0.0673226 
-0.0359824 -0.0352347 0.0598393 0.00793145 -0.0846003 0.0789065 0.00766712 -0.079013 0.0831989 
0.00551236 -0.0730587 0.0868775 0.0026902 -0.0671617 0.0900336 -0.00164475 -0.0613949 0.0920056 
-0.0064317 -0.0558783 0.0930752 -0.0120695 -0.0508326 0.092446 -0.0176744 -0.0462069 0.0905735 
-0.0232274 -0.0422444 0.0867378 -0.0280184 -0.0388033 0.0816518 -0.0317933 -0.0360574 0.0748986 
-0.0341043 -0.0338112 0.0675889 -0.0347605 -0.0321298 0.0596503 -0.0279822 -0.0323012 0.108297 
-0.0290201 -0.0296938 0.109893 -0.0304869 -0.0275705 0.110598 -0.0320163 -0.0256443 0.110955 
-0.0336877 -0.0241648 0.110525 -0.0353027 -0.0228984 0.109772 -0.0368117 -0.022033 0.108412 
-0.0381406 -0.0213702 0.106799 -0.0391854 -0.0210272 0.104787 -0.039947 -0.020829 0.102628 
-0.040331 -0.0208239 0.100273 -0.0403826 -0.0208532 0.0979062 -0.0400582 -0.0209215 0.0955257 
-0.025277 -0.0375621 0.107458 -0.0266429 -0.0349692 0.109168 -0.028434 -0.0327845 0.109958 
-0.0302864 -0.030786 0.110383 -0.0322775 -0.0292093 0.109977 -0.0342028 -0.027852 0.109221 
-0.0360045 -0.0269079 0.107808 -0.0375992 -0.0261855 0.106113 -0.0388671 -0.0258132 0.103971 
-0.0398019 -0.0256057 0.101662 -0.0402925 -0.025618 0.0991288 -0.0403837 -0.0256695 0.0965864 
-0.0400233 -0.0257652 0.094033 -0.0226621 -0.0423201 0.106005 -0.0242618 -0.0397431 0.107826 
-0.0263227 -0.0374939 0.108713 -0.0284577 -0.0354194 0.109216 -0.030761 -0.0337407 0.108846 
-0.0330009 -0.0322908 0.108095 -0.0351215 -0.0312715 0.106624 -0.0370124 -0.0304996 0.10483 
-0.0385409 -0.0301186 0.102526 -0.0396796 -0.0299308 0.100023 -0.0402987 -0.0300007 0.0972545 
-0.0404347 -0.0301194 0.0944761 -0.0400244 -0.0302932 0.0916867 -0.020063 -0.046906 0.1044 
-0.0218586 -0.0443231 0.106334 -0.024167 -0.0419879 0.107323 -0.0265694 -0.0398163 0.107909 
-0.0291847 -0.0380154 0.107579 -0.0317451 -0.036454 0.106832 -0.0342022 -0.0353433 0.105297 
-0.0364099 -0.0345093 0.103391 -0.038224 -0.0341122 0.100899 -0.0395885 -0.0339418 0.0981687 
-0.0403536 -0.0340734 0.0951206 -0.0405421 -0.0342679 0.0920603 -0.0400788 -0.0345335 0.0889859 
-0.0174996 -0.0511019 0.102451 -0.0194054 -0.0484639 0.104499 -0.0219111 -0.045994 0.105602 
-0.0245457 -0.0436774 0.106282 -0.0274728 -0.0417081 0.106003 -0.0303674 -0.0399923 0.10526 
-0.0332009 -0.0387539 0.103645 -0.0357719 -0.037829 0.101594 -0.0379284 -0.0373993 0.0988573 
-0.0395681 -0.0372407 0.0958249 -0.0405187 -0.0374435 0.0923987 -0.0407773 -0.0377333 0.0889518 
-0.0402539 -0.0381216 0.0854816 -0.0148799 -0.0552161 0.100432 -0.0168546 -0.0524745 0.102604 
-0.0195335 -0.0498213 0.103837 -0.0223845 -0.0473108 0.104627 -0.0256258 -0.0451239 0.10441 
-0.0288656 -0.043205 0.10368 -0.0321027 -0.0417907 0.101981 -0.0350694 -0.0407292 0.0997728 
-0.037609 -0.0402248 0.0967586 -0.0395616 -0.0400415 0.0933779 -0.0407318 -0.0402861 0.0895087 
-0.0410821 -0.0406498 0.0856033 -0.0405056 -0.0411481 0.0816572 -0.0121544 -0.0591765 0.0982805 
-0.0141202 -0.0562404 0.100597 -0.0169268 -0.0533123 0.101989 -0.0199642 -0.050516 0.102916 
-0.0235246 -0.0480186 0.102787 -0.0271306 -0.0458045 0.102083 -0.0308223 -0.0441238 0.100297 
-0.0342455 -0.0428396 0.0979041 -0.0372446 -0.0421815 0.0945523 -0.0395814 -0.0419045 0.0907366 
-0.0410353 -0.0421356 0.0863022 -0.0415176 -0.0425327 0.0818029 -0.0409016 -0.0431176 0.0772301 
-0.0092366 -0.0632355 0.0960928 -0.0111454 -0.0600299 0.0985869 -0.0140504 -0.0567504 0.100178 
-0.017254 -0.0535908 0.101281 -0.021134 -0.0507028 0.101281 -0.025117 -0.048111 0.10064 
-0.0292938 -0.0460767 0.0987919 -0.0332125 -0.0444802 0.0962261 -0.0367238 -0.0435751 0.0925274 
-0.0394985 -0.0431126 0.0882465 -0.0412912 -0.0432403 0.0831894 -0.0419499 -0.0435907 0.0780232 
-0.0413266 -0.0441927 0.0727336 -0.00601517 -0.06745 0.0938483 -0.00779067 -0.0638565 0.0965721 
-0.0107481 -0.0601053 0.0984243 -0.014086 -0.05646 0.0997685 -0.0182863 -0.0530548 0.0999611 
-0.0226634 -0.0499549 0.0994383 -0.0273733 -0.0474293 0.0975688 -0.0318493 -0.0453792 0.0948496 
-0.035956 -0.0440796 0.0907887 -0.0392534 -0.0432866 0.0859951 -0.0414718 -0.0431691 0.0802246 
-0.042377 -0.0433461 0.0742763 -0.0417976 -0.0438559 0.068127 -0.00240282 -0.0720094 0.0914938 
-0.00398735 -0.0679311 0.0945145 -0.00696106 -0.0636136 0.0967057 -0.0104056 -0.0593881 0.0983707 
-0.0149173 -0.055371 0.0988433 -0.0196893 -0.0516632 0.098526 -0.0249514 -0.0485379 0.0967219 
-0.0300146 -0.0459161 0.0939278 -0.0347637 -0.0440893 0.0895706 -0.0386402 -0.0428249 0.0843114 
-0.0413531 -0.0423106 0.0778494 -0.0425758 -0.0421681 0.0711179 -0.042114 -0.0424461 0.0640819 
0.00173073 -0.0770288 0.0889928 0.000414149 -0.0723362 0.0924 -0.00252767 -0.0673267 0.0950333 
-0.00604181 -0.0623949 0.0971265 -0.0108532 -0.0576392 0.0979954 -0.0160213 -0.0531908 0.0979997 
-0.0218607 -0.049321 0.0963765 -0.0275509 -0.0459702 0.0936123 -0.0330056 -0.0434391 0.0890466 
-0.0375363 -0.0415155 0.0833845 -0.0408351 -0.0404022 0.0762604 -0.0424701 -0.0397458 0.0687444 
-0.0422242 -0.0396057 0.0607854 0.00650813 -0.0826314 0.0861434 0.00551878 -0.0772099 0.0900465 
0.00264081 -0.0714138 0.0932412 -0.000916198 -0.0656878 0.0958873 -0.00601235 -0.0601205 0.0972898 
-0.011565 -0.0548572 0.0977614 -0.0179771 -0.0501659 0.0964812 -0.0242979 -0.0459969 0.0939176 
-0.0304747 -0.0426525 0.0893279 -0.0356946 -0.0399435 0.083448 -0.0396385 -0.0380816 0.0758479 
-0.0417717 -0.036756 0.0677142 -0.0418579 -0.0360366 0.0589774 0.0120134 -0.0888933 0.0829001 
0.0114183 -0.0826134 0.0874227 0.00864023 -0.0759238 0.0913138 0.00507061 -0.0693041 0.0946539 
-0.000293329 -0.0628429 0.0967448 -0.00621774 -0.0566805 0.0978487 -0.0131972 -0.0510808 0.0970946 
-0.0201526 -0.0459925 0.0949247 -0.0270703 -0.0417118 0.0905195 -0.0330187 -0.0380745 0.0846312 
-0.0376747 -0.035295 0.0767654 -0.0404032 -0.0331249 0.0682026 -0.0409528 -0.0316437 0.058852 
-0.0257841 -0.0328911 0.114936 -0.0275568 -0.0301809 0.116971 -0.0297501 -0.027979 0.117845 
-0.031973 -0.0259933 0.118291 -0.0342629 -0.0244973 0.117771 -0.0364415 -0.023243 0.116877 
-0.0384107 -0.0224437 0.11528 -0.0401305 -0.0218791 0.113404 -0.0414566 -0.0216851 0.111089 
-0.0424211 -0.021659 0.108622 -0.0429033 -0.0218567 0.105954 -0.0429733 -0.0220863 0.103285 
-0.0425773 -0.022352 0.100617 -0.0229757 -0.0386658 0.114085 -0.0250874 -0.0359672 0.116234 
-0.0276282 -0.0336909 0.117202 -0.0302013 -0.0316194 0.117724 -0.0328479 -0.0300121 0.117237 
-0.0353762 -0.0286573 0.116346 -0.0376815 -0.0277782 0.114698 -0.0397078 -0.0271618 0.112736 
-0.0412934 -0.0269603 0.110282 -0.0424575 -0.0269556 0.107651 -0.0430595 -0.0272136 0.104784 
-0.0431662 -0.0275106 0.101919 -0.0427131 -0.0278517 0.0990559 -0.0202608 -0.0437967 0.112493 
-0.0226068 -0.0411129 0.114759 -0.0254348 -0.0387614 0.115841 -0.0283157 -0.0366036 0.116459 
-0.0313166 -0.0348847 0.116028 -0.0342068 -0.0334342 0.115158 -0.0368887 -0.0324887 0.113459 
-0.0392673 -0.0318441 0.1114 -0.0411671 -0.0316745 0.108771 -0.0425757 -0.0317434 0.105925 
-0.0433295 -0.0321301 0.102792 -0.0434807 -0.0325697 0.0996564 -0.042951 -0.033069 0.0965193 
-0.0175627 -0.0486904 0.110744 -0.0201012 -0.0459973 0.113127 -0.0231929 -0.0435473 0.114329 
-0.0263664 -0.0412804 0.11505 -0.0297253 -0.0394286 0.11468 -0.0329894 -0.037863 0.113829 
-0.0360749 -0.0368363 0.112073 -0.0388368 -0.0361539 0.109897 -0.0410877 -0.0360149 0.107061 
-0.0427729 -0.0361636 0.103957 -0.0437036 -0.0366958 0.100498 -0.0439098 -0.0373007 0.0970297 
-0.043297 -0.0379877 0.093552 -0.0149024 -0.053046 0.10864 -0.0175392 -0.0502895 0.111139 
-0.0208411 -0.047688 0.112476 -0.0242727 -0.0452605 0.113313 -0.0279982 -0.0432271 0.113016 
-0.031663 -0.041503 0.112186 -0.0352135 -0.0403614 0.110351 -0.0384288 -0.0396193 0.108019 
-0.0411148 -0.039508 0.1049 -0.0431489 -0.0397509 0.101439 -0.0443139 -0.040466 0.0975211 
-0.0445986 -0.0412878 0.0935788 -0.0438881 -0.0422301 0.0896085 -0.012177 -0.0572693 0.106511 
-0.0148671 -0.0543933 0.109136 -0.018354 -0.0515838 0.110622 -0.0220288 -0.0489385 0.111588 
-0.0261292 -0.0466656 0.111378 -0.0302147 -0.0447257 0.110574 -0.0342722 -0.0434126 0.108655 
-0.0379903 -0.0425583 0.106142 -0.0411727 -0.0424282 0.102693 -0.0436124 -0.0427277 0.0988043 
-0.0450621 -0.0436 0.0943312 -0.0454542 -0.0446245 0.089806 -0.0446508 -0.0458211 0.0852218 
-0.00932922 -0.0612435 0.104336 -0.0119877 -0.0581424 0.107102 -0.0156121 -0.0550184 0.108765 
-0.0195019 -0.0520482 0.109889 -0.023993 -0.0494265 0.109789 -0.0285369 -0.0471626 0.109023 
-0.0331802 -0.045572 0.107005 -0.0374944 -0.0445065 0.104269 -0.0412887 -0.0442701 0.100397 
-0.0442408 -0.0445555 0.0959512 -0.0460698 -0.0455364 0.0907397 -0.0466238 -0.0467371 0.0854272 
-0.0457366 -0.048186 0.0800005 -0.00625659 -0.0653121 0.102214 -0.00883008 -0.0618976 0.105155 
-0.0125597 -0.0583679 0.107037 -0.0166435 -0.0549793 0.10836 -0.0215304 -0.0519101 0.108414 
-0.0265523 -0.0492188 0.107723 -0.0318286 -0.0472389 0.105631 -0.036799 -0.0458465 0.102674 
-0.0412865 -0.0453815 0.0983529 -0.0448327 -0.0455324 0.0932885 -0.0471238 -0.0465044 0.0872335 
-0.0479015 -0.0477776 0.0810025 -0.0469681 -0.0493912 0.0745726 -0.00282892 -0.0695299 0.100176 
-0.00523295 -0.0656623 0.103343 -0.00901686 -0.0615833 0.10551 -0.0132619 -0.0576285 0.107098 
-0.0185522 -0.0539557 0.107376 -0.0240831 -0.0506739 0.10682 -0.0300668 -0.0481284 0.104692 
-0.0357887 -0.046226 0.101521 -0.0410975 -0.0453393 0.0967061 -0.0453671 -0.0451658 0.0909267 
-0.0482511 -0.0459432 0.0838619 -0.0493497 -0.0471255 0.0765052 -0.0484297 -0.0487655 0.0688184 
0.00105857 -0.0741637 0.0981422 -0.00110986 -0.0697291 0.101607 -0.00490421 -0.0649886 0.104142 
-0.00927622 -0.0603539 0.106085 -0.0149576 -0.055959 0.106687 -0.0209982 -0.0519589 0.106364 
-0.0277152 -0.0487019 0.104302 -0.0342315 -0.0461264 0.101008 -0.0404308 -0.0446269 0.0957667 
-0.0455065 -0.0439215 0.0893082 -0.049084 -0.0442749 0.081226 -0.050602 -0.0451421 0.0726958 
-0.0497919 -0.0465901 0.0636591 0.00555912 -0.0793521 0.096115 0.0037145 -0.0741987 0.0999705 
-3.18273e-05 -0.0686473 0.102985 -0.00448517 -0.0631807 0.105401 -0.0105411 -0.057906 0.10646 
-0.0170927 -0.0530171 0.106507 -0.0245773 -0.0488542 0.104646 -0.0319448 -0.0453878 0.101346 
-0.0391273 -0.0430208 0.0957707 -0.0451194 -0.0415069 0.0886808 -0.0495243 -0.0411304 0.0795708 
-0.0515933 -0.0413834 0.0698035 -0.0510216 -0.0423483 0.0592931 0.0108149 -0.08529 0.0938595 
0.00936323 -0.0792847 0.0982174 0.005708 -0.0728144 0.101838 0.00121271 -0.0664145 0.104863 
-0.00518671 -0.0601741 0.106537 -0.0122212 -0.0543043 0.107125 -0.0204511 -0.0491323 0.105667 
-0.0286586 -0.0446467 0.102576 -0.0368307 -0.0412452 0.0969056 -0.0437731 -0.0387204 0.0894244 
-0.0490758 -0.0373646 0.0795291 -0.0518075 -0.0367386 0.0687399 -0.0516328 -0.0369378 0.0569401 
0.0169244 -0.092075 0.0913459 0.0159439 -0.0850677 0.0963323 0.0124284 -0.0775561 0.100701 
0.00793569 -0.0701083 0.104489 0.00122781 -0.0628051 0.106957 -0.00625784 -0.0558506 0.108281 
-0.0152075 -0.0495524 0.107453 -0.0242423 -0.0439029 0.104815 -0.0334116 -0.0392779 0.0993188 
-0.0413426 -0.0355135 0.0917179 -0.0476225 -0.0328965 0.0813112 -0.0511432 -0.031092 0.0697433 
-0.0515449 -0.0302062 0.0568627 -0.0235038 -0.0334855 0.121798 -0.0260471 -0.0306714 0.124266 
-0.0289962 -0.0283888 0.125294 -0.0319382 -0.0263412 0.125814 -0.0348642 -0.0248265 0.125185 
-0.0376205 -0.0235825 0.124133 -0.0400577 -0.022848 0.122283 -0.0421738 -0.0223811 0.120131 
-0.0437829 -0.0223368 0.117504 -0.0449504 -0.0224841 0.114722 -0.0455289 -0.0228868 0.111734 
-0.0456146 -0.0233192 0.10876 -0.045143 -0.0237851 0.105801 -0.0205912 -0.0397936 0.120916 
-0.0234835 -0.0369873 0.123502 -0.0268025 -0.0346156 0.124634 -0.0301219 -0.0324672 0.125241 
-0.0334419 -0.030825 0.124657 -0.0365876 -0.0294692 0.123617 -0.0394052 -0.0286525 0.121719 
-0.0418693 -0.0281407 0.119481 -0.0437753 -0.0281102 0.116706 -0.0451697 -0.0283099 0.113748 
-0.0458817 -0.0288166 0.110545 -0.0460014 -0.0293629 0.107355 -0.0454515 -0.0299538 0.104181 
-0.0177748 -0.0453072 0.119159 -0.0208997 -0.0425145 0.12187 -0.0245225 -0.040056 0.123138 
-0.0281741 -0.0378101 0.123863 -0.0318907 -0.0360456 0.123358 -0.0354467 -0.0345899 0.122356 
-0.0386999 -0.0337152 0.12042 -0.0415741 -0.0331964 0.118088 -0.0438496 -0.0332395 0.11513 
-0.0455306 -0.0335682 0.11194 -0.046419 -0.0342777 0.108441 -0.0465837 -0.035045 0.10495 
-0.0459303 -0.0358776 0.101467 -0.0149763 -0.0505133 0.117239 -0.0182882 -0.0477082 0.120074 
-0.0221897 -0.0451381 0.121485 -0.0261584 -0.0427705 0.122335 -0.0302795 -0.0408615 0.121916 
-0.0342634 -0.0392867 0.120954 -0.0379893 -0.0383407 0.11897 -0.0413153 -0.0378088 0.116521 
-0.0440099 -0.0379309 0.11334 -0.0460204 -0.0384046 0.109864 -0.0471187 -0.0393472 0.105996 
-0.0473416 -0.0403738 0.102124 -0.0465749 -0.0414955 0.0982466 -0.0122185 -0.0550226 0.114953 
-0.015614 -0.0521463 0.117909 -0.0197372 -0.0494081 0.119477 -0.0239889 -0.0468641 0.120468 
-0.0285319 -0.0447601 0.12015 -0.0329843 -0.0430227 0.119229 -0.0372665 -0.0419752 0.117175 
-0.0411391 -0.0414166 0.114561 -0.0443652 -0.0416299 0.111064 -0.0468021 -0.0422849 0.107179 
-0.0481865 -0.043529 0.102776 -0.0484976 -0.0449018 0.0983446 -0.0475953 -0.0464202 0.0938804 
-0.00938747 -0.0593444 0.112691 -0.0128177 -0.0563331 0.115775 -0.017136 -0.0533624 0.117515 
-0.0216566 -0.0505768 0.118659 -0.0266358 -0.0482112 0.118454 -0.0315861 -0.0462452 0.11758 
-0.036482 -0.0450316 0.115443 -0.0409689 -0.044387 0.112632 -0.04481 -0.044641 0.108754 
-0.0477501 -0.0454397 0.104367 -0.0494887 -0.0469648 0.099299 -0.0499251 -0.048679 0.094162 
-0.0488897 -0.0506072 0.0889466 -0.00641867 -0.0633133 0.110474 -0.00979137 -0.0600472 0.113697 
-0.0142547 -0.0567225 0.115635 -0.0190178 -0.0535728 0.116959 -0.0244603 -0.0508199 0.116892 
-0.0299636 -0.0485011 0.11607 -0.0355813 -0.0469995 0.113829 -0.0408097 -0.0461576 0.110758 
-0.0454234 -0.0463575 0.106379 -0.0490114 -0.047229 0.101315 -0.0512318 -0.0489962 0.0953371 
-0.0518636 -0.0510429 0.0892197 -0.0506995 -0.0534056 0.0829443 -0.00319271 -0.06737 0.108403 
-0.006449 -0.063747 0.111798 -0.0110219 -0.0599621 0.113978 -0.0160057 -0.0563384 0.115526 
-0.0219211 -0.0530801 0.115643 -0.0280061 -0.0502838 0.114913 -0.0344106 -0.048357 0.11259 
-0.0404637 -0.0471748 0.109257 -0.045962 -0.0471683 0.104329 -0.0503107 -0.0479635 0.0984947 
-0.0531265 -0.0498274 0.0914519 -0.0540343 -0.0520802 0.0841611 -0.0527852 -0.0547728 0.0765902 
0.000439323 -0.0715654 0.106564 -0.00260757 -0.0674242 0.110183 -0.00723396 -0.0630115 0.112671 
-0.0124043 -0.0587403 0.114513 -0.0188075 -0.0547901 0.114889 -0.0255197 -0.0513192 0.114313 
-0.0328136 -0.0487507 0.111945 -0.0398228 -0.0470025 0.108343 -0.0463828 -0.0465492 0.102793 
-0.0516701 -0.0470322 0.0960408 -0.0552608 -0.0487633 0.0876877 -0.0565719 -0.051023 0.0789189 
-0.0553063 -0.0538803 0.0696804 0.00460044 -0.0762469 0.10485 0.00183783 -0.0714565 0.108765 
-0.00278987 -0.0662863 0.111652 -0.0081054 -0.061234 0.113885 -0.01498 -0.0564492 0.114633 
-0.0223202 -0.0521466 0.114326 -0.0305367 -0.0487516 0.112031 -0.0385591 -0.046226 0.10826 
-0.0462748 -0.0450734 0.102157 -0.0526132 -0.0449657 0.0945113 -0.0571151 -0.0462514 0.0848069 
-0.0589589 -0.0482099 0.0744598 -0.0577978 -0.0509288 0.0633862 0.00946698 -0.0815767 0.103301 
0.00708852 -0.0759626 0.10761 0.00252906 -0.0698617 0.111017 -0.00287669 -0.06385 0.11377 
-0.0102007 -0.0580406 0.115042 -0.0181699 -0.0526966 0.115156 -0.0273535 -0.0482285 0.113091 
-0.0364648 -0.0446441 0.109283 -0.045462 -0.0424551 0.102724 -0.0530011 -0.0413857 0.0942144 
-0.0585963 -0.0418092 0.083104 -0.061145 -0.0430555 0.0710447 -0.06025 -0.0452322 0.0579129 
0.0152001 -0.0878223 0.10165 0.0132853 -0.0812342 0.106467 0.0088494 -0.0740817 0.110526 
0.00340676 -0.0669966 0.113946 -0.00431783 -0.0600642 0.115921 -0.0128696 -0.053569 0.116658 
-0.0229783 -0.0478969 0.115064 -0.0331513 -0.0430844 0.111482 -0.0434256 -0.0396292 0.104761 
-0.0521984 -0.0373129 0.0956851 -0.0589693 -0.0365151 0.083468 -0.0623624 -0.0366624 0.0699591 
-0.0619373 -0.0378781 0.0549901 0.0219128 -0.0951034 0.0998835 0.0205516 -0.0873711 0.105336 
0.0163018 -0.0790303 0.110197 0.0108825 -0.0707428 0.114451 0.00281246 -0.0625761 0.117332 
-0.00626936 -0.0548058 0.118919 -0.0172557 -0.0477816 0.118071 -0.0284593 -0.0415497 0.115012 
-0.0400061 -0.0365688 0.108462 -0.0500499 -0.0326832 0.0991538 -0.0580895 -0.030258 0.0861684 
-0.0624847 -0.0288687 0.0715068 -0.0627601 -0.0286505 0.0549506 -0.0202986 -0.0341317 0.131163 
-0.0240161 -0.0312017 0.134008 -0.0280504 -0.0288129 0.135023 -0.0320005 -0.026678 0.135437 
-0.0357594 -0.0251189 0.134492 -0.0392526 -0.0238638 0.133086 -0.0422453 -0.0231812 0.130811 
-0.0448183 -0.0228069 0.128236 -0.0467287 -0.0229191 0.125185 -0.0481006 -0.0232546 0.122001 
-0.0487545 -0.0238877 0.118637 -0.0488239 -0.0245509 0.115314 -0.0482325 -0.025248 0.112038 
-0.0172714 -0.0411923 0.13005 -0.021334 -0.0382567 0.133043 -0.025755 -0.0357463 0.134201 
-0.0301065 -0.0334767 0.134741 -0.0343002 -0.0317526 0.133878 -0.0382277 -0.030355 0.132519 
-0.0416542 -0.0295719 0.130226 -0.0446267 -0.0291483 0.127589 -0.0468821 -0.0292923 0.12441 
-0.0485173 -0.0297135 0.121061 -0.0493256 -0.0305046 0.117488 -0.0494294 -0.0313417 0.113953 
-0.0487369 -0.032231 0.110461 -0.0143348 -0.0471975 0.127832 -0.0186063 -0.044273 0.13099 
-0.0233364 -0.0416552 0.132343 -0.0280379 -0.0392664 0.133063 -0.0326745 -0.0373964 0.132344 
-0.0370685 -0.0358842 0.131084 -0.0410056 -0.0350453 0.128804 -0.0444634 -0.0346362 0.126116 
-0.0471643 -0.0349059 0.122782 -0.0491464 -0.0355307 0.11922 -0.0501703 -0.0366292 0.115356 
-0.0503268 -0.0378012 0.111517 -0.0495027 -0.0390562 0.107707 -0.0114211 -0.0527703 0.125446 
-0.0158493 -0.0498316 0.128764 -0.0208596 -0.047083 0.13032 -0.025895 -0.0445527 0.131227 
-0.0309869 -0.0425169 0.130662 -0.0358731 -0.0408745 0.129505 -0.040372 -0.0399722 0.127231 
-0.0443733 -0.0395809 0.124469 -0.047589 -0.0399961 0.120935 -0.0499783 -0.0408608 0.117098 
-0.0512659 -0.0423247 0.112856 -0.0514938 -0.0439014 0.108619 -0.050524 -0.0456055 0.104387 
-0.00855951 -0.057363 0.122678 -0.0130258 -0.0543528 0.126145 -0.0182512 -0.0514204 0.127919 
-0.0235837 -0.0486979 0.129032 -0.0291589 -0.0464513 0.128645 -0.0345958 -0.0446432 0.127599 
-0.0397723 -0.0436606 0.125314 -0.0444491 -0.0432941 0.122428 -0.0483369 -0.0439003 0.118594 
-0.0512699 -0.045087 0.114339 -0.0529298 -0.0470475 0.109523 -0.0532721 -0.0491872 0.104673 
-0.0521248 -0.0515294 0.0997828 -0.00562361 -0.061664 0.120013 -0.010073 -0.0585108 0.123628 
-0.0154836 -0.0553221 0.125631 -0.0210992 -0.0523341 0.126961 -0.0271796 -0.0498008 0.126762 
-0.0332098 -0.0477523 0.12583 -0.0391454 -0.0466165 0.123518 -0.0445948 -0.0462114 0.120468 
-0.0492762 -0.04696 0.116252 -0.0528655 -0.0484418 0.11146 -0.0549985 -0.0509011 0.105901 
-0.0555082 -0.0536312 0.100243 -0.0541827 -0.0566676 0.0944744 -0.00254781 -0.0654159 0.117545 
-0.00687681 -0.0619849 0.121304 -0.0124165 -0.0584039 0.123555 -0.0182889 -0.0550121 0.12512 
-0.0249157 -0.0520494 0.125132 -0.0316193 -0.0496198 0.124319 -0.0384675 -0.0481939 0.121951 
-0.0448719 -0.0476308 0.118659 -0.0505758 -0.0484301 0.113909 -0.0550334 -0.0501563 0.108356 