# vtk DataFile Version 2.0
vtk output
ASCII
DATASET RECTILINEAR_GRID
DIMENSIONS 13 13 13
X_COORDINATES 13 float
-7.5 -7.29167 -7.08333 -6.875 -6.66667 -6.45833 -6.25 -6.04167 -5.83333 
-5.625 -5.41667 -5.20833 -5 
Y_COORDINATES 13 float
0 0.208333 0.416667 0.625 0.833333 1.04167 1.25 1.45833 1.66667 
1.875 2.08333 2.29167 2.5 
Z_COORDINATES 13 float
5 5.20833 5.41667 5.625 5.83333 6.04167 6.25 6.45833 6.66667 
6.875 7.08333 7.29167 7.5 
POINT_DATA 2197
VECTORS grad float
0.0193143 0.0807382 0.0503533 0.026406 0.0843418 0.0529489 0.0337319 0.0872478 0.0551571 
0.0416436 0.0884094 0.0563965 0.0493935 0.0887028 0.0571842 0.0568094 0.0872056 0.0570404 
0.063599 0.0849006 0.0565137 0.0693099 0.0812046 0.0553276 0.0740314 0.0769441 0.0539278 
0.0773182 0.0718653 0.0522183 0.0794493 0.0665027 0.050477 0.0801622 0.060792 0.0486968 
0.0797488 0.0550078 0.0470053 0.0233558 0.0758309 0.0415999 0.0294276 0.0788777 0.0437882 
0.0356657 0.0813589 0.0456877 0.0423201 0.0824264 0.0468651 0.0488304 0.0827997 0.047705 
0.0550436 0.0817411 0.047849 0.0607398 0.0800207 0.0476914 0.0655458 0.0771605 0.0470143 
0.0695161 0.0738033 0.0461401 0.0722747 0.0697254 0.0449802 0.0740167 0.0653491 0.043746 
0.074511 0.0606062 0.0424206 0.0739745 0.0557111 0.041113 0.026393 0.0709229 0.0350242 
0.0317542 0.0736041 0.0369474 0.0372456 0.0758208 0.0386355 0.0430627 0.0768764 0.0397359 
0.0487475 0.0773696 0.0405585 0.0541592 0.0767027 0.0408084 0.0591148 0.0754987 0.0408 
0.0632846 0.0733696 0.0403469 0.0667015 0.070826 0.0397083 0.0690268 0.0676814 0.0388007 
0.0704042 0.0642587 0.0378006 0.0706183 0.0604946 0.0366867 0.0698369 0.0565256 0.0355592 
0.0293882 0.066038 0.0285505 0.0340541 0.0683617 0.030213 0.0388155 0.0703205 0.0316924 
0.0438156 0.0713672 0.0327143 0.048695 0.0719817 0.0335163 0.0533257 0.0717045 0.0338647 
0.0575594 0.0710141 0.0339965 0.0611094 0.0696121 0.0337555 0.0639865 0.0678791 0.0333398 
0.0658877 0.0656664 0.0326708 0.0669057 0.0631985 0.0318912 0.0668396 0.0604174 0.0309756 
0.0658082 0.0573804 0.030016 0.0317388 0.0615064 0.0236414 0.0359455 0.0635965 0.0251098 
0.0402335 0.0653993 0.0264222 0.0447247 0.0664843 0.0273444 0.0491086 0.0672414 0.0280741 
0.0532713 0.0673219 0.0284068 0.0570734 0.0671024 0.0285398 0.0602543 0.0663662 0.0283289 
0.0627976 0.0653994 0.0279423 0.0644163 0.0640981 0.0273012 0.0651532 0.0626021 0.0265345 
0.0648076 0.0608669 0.0256137 0.0634481 0.058855 0.0246358 0.0340415 0.05702 0.0188629 
0.0378094 0.0588834 0.0201406 0.0416461 0.0605356 0.0212876 0.0456554 0.0616598 0.0221077 
0.0495717 0.0625584 0.0227605 0.0532964 0.0629919 0.0230686 0.0566965 0.0632383 0.0231915 
0.0595375 0.0631624 0.0229954 0.061774 0.0629591 0.0226207 0.0631336 0.0625708 0.0219869 
0.0636064 0.0620543 0.0212111 0.0629907 0.0613804 0.020261 0.0613002 0.0604154 0.0192403 
0.035923 0.0529309 0.0152334 0.0394311 0.0546297 0.0163507 0.0430122 0.0561776 0.0173478 
0.0467756 0.0573482 0.018044 0.0504696 0.0583799 0.0185795 0.0540203 0.0591248 0.0187833 
0.0572801 0.0597929 0.0187965 0.0600388 0.0603288 0.0184814 0.0622047 0.0608656 0.017966 
0.0635112 0.0614034 0.01716 0.0638702 0.0619346 0.0161805 0.0630663 0.0624578 0.0149882 
0.0610197 0.0627304 0.0137099 0.0377519 0.0488962 0.0117509 0.0410223 0.050432 0.0127102 
0.044372 0.051875 0.0135581 0.0479201 0.0530856 0.0141276 0.0514249 0.0542413 0.0145404 
0.0548404 0.0552835 0.0146301 0.0580016 0.0563586 0.0145206 0.0607247 0.0574903 0.0140679 
0.0628687 0.0587553 0.0133882 0.0641728 0.0602134 0.0123793 0.0644629 0.0617993 0.0111589 
0.0635084 0.0635418 0.0096787 0.0611194 0.0650928 0.00809142 0.0392662 0.0451875 0.00915057 
0.0424302 0.0465703 0.00996606 0.0456945 0.0479043 0.0106698 0.0492097 0.0491162 0.0110944 
0.0527242 0.0503422 0.011353 0.0562371 0.0515976 0.0112694 0.0595501 0.052991 0.0109586 
0.0625189 0.0546221 0.0102564 0.0649317 0.0565442 0.0092715 0.0665385 0.0588882 0.00787653 
0.0670288 0.06157 0.00619105 0.0661487 0.0646663 0.00414904 0.0634998 0.0677398 0.00194398 
0.0407128 0.0415318 0.00671111 0.0437892 0.0427548 0.00738493 0.0469896 0.0439695 0.0079455 
0.0505001 0.0451634 0.00822294 0.0540568 0.0464358 0.00832307 0.0577087 0.04787 0.00805751 
0.0612231 0.0495423 0.00753262 0.0645009 0.0516245 0.00656109 0.0672575 0.0541539 0.00524204 
0.0692585 0.0573317 0.00341906 0.0700448 0.0610694 0.00120908 0.0693401 0.0654942 -0.00147585 
0.0664973 0.0700992 -0.00440315 0.0418585 0.0381119 0.00498661 0.0449309 0.0391444 0.0055283 
0.0481629 0.0401937 0.00594971 0.0517937 0.0412845 0.00607041 0.0555373 0.0424962 0.00599301 
0.0595134 0.0439574 0.00550703 0.0634499 0.0457333 0.00471119 0.0673179 0.0480516 0.00338167 
0.0707509 0.0509668 0.00160012 0.0735532 0.0547478 -0.000836908 0.0750612 0.0593636 -0.00383571 
0.0749809 0.065004 -0.00752398 0.0722375 0.0711805 -0.0116377 0.0429028 0.0347422 0.003439 
0.0459804 0.0355687 0.00385177 0.0492545 0.0364318 0.00413665 0.0530201 0.0373861 0.00410182 
0.0569685 0.0384946 0.003847 0.0612941 0.0399212 0.00313847 0.0656875 0.0417238 0.00206644 
0.0701978 0.0441739 0.000368367 0.0743821 0.047347 -0.0018964 0.0780935 0.0515684 -0.00498287 
0.0804624 0.0568744 -0.00883508 0.0811835 0.0635117 -0.0136271 0.0786974 0.0710447 -0.0190861 
0.0435971 0.0315461 0.00250244 0.0467112 0.0321127 0.00279739 0.0500641 0.032718 0.00295487 
0.0540141 0.0334203 0.00276867 0.0582292 0.0342785 0.00233683 0.0629913 0.0354584 0.00139837 
0.0679628 0.0370212 3.20604e-05 0.073295 0.0392435 -0.0020711 0.078489 0.0422321 -0.0048906 
0.0834827 0.0463316 -0.00874881 0.0871927 0.0516788 -0.0136776 0.0893273 0.0585571 -0.0199202 
0.0876436 0.0667042 -0.027273 0.0222292 0.0719121 0.0506356 0.0287296 0.0750827 0.0531554 
0.0354361 0.0776582 0.0553078 0.0426578 0.0787461 0.0565417 0.0497428 0.0790861 0.0573481 
0.0565458 0.0778836 0.0572726 0.0628009 0.0759572 0.0568308 0.0681122 0.0727843 0.055758 
0.0725336 0.0690603 0.0544743 0.0756645 0.0645372 0.0528848 0.0777203 0.0596816 0.0512553 
0.0784566 0.0544178 0.0495766 0.0781048 0.0490043 0.047973 0.025798 0.0682259 0.0422705 
0.0314173 0.0709376 0.0444092 0.0371837 0.0731569 0.046269 0.0433177 0.0741454 0.0474313 
0.0493232 0.0745233 0.048268 0.0550634 0.0736416 0.048433 0.0603374 0.0721582 0.0483048 
0.0648086 0.0696383 0.0476713 0.0685121 0.0666353 0.0468423 0.0711023 0.0629317 0.0457299 
0.0727359 0.0589005 0.0445393 0.0731954 0.0544672 0.0432527 0.0726587 0.0498332 0.0419778 
0.0285197 0.0642683 0.0358259 0.0335081 0.0666651 0.0376985 0.0386106 0.0686529 0.039341 
0.0439988 0.0696181 0.0404079 0.0492643 0.0700828 0.0412032 0.054277 0.0695153 0.0414382 
0.0588703 0.0684544 0.0414187 0.0627412 0.0665436 0.0409609 0.0659113 0.0642273 0.0403177 
0.0680652 0.0613228 0.0394056 0.0693212 0.0581178 0.0383989 0.0694754 0.0545438 0.0372762 
0.068669 0.0507311 0.0361391 0.0312045 0.0603203 0.0294746 0.0355751 0.0624087 0.0310847 
0.0400281 0.0641704 0.0325119 0.0446875 0.0651153 0.0334818 0.0492304 0.0656686 0.0342322 
0.0535334 0.0654147 0.0345296 0.0574625 0.0647751 0.0346099 0.0607479 0.0634714 0.0343162 
0.0633969 0.0618405 0.0338463 0.0651232 0.0597352 0.0331209 0.066007 0.0573581 0.0322847 
0.0658565 0.0546474 0.0313125 0.0647764 0.0516611 0.0303011 0.0333253 0.05652 0.0245547 
0.037278 0.0583995 0.0259571 0.0412995 0.060019 0.0272007 0.0454932 0.0609888 0.0280469 
0.0495797 0.0616578 0.0286974 0.0534452 0.0617066 0.028944 0.0569653 0.0614702 0.0289869 
0.0598905 0.0607426 0.0286786 0.0622069 0.0597789 0.028191 0.0636406 0.0584727 0.0274434 
0.0642312 0.0569508 0.0265708 0.0637871 0.0551642 0.0255447 0.0623723 0.0530851 0.0244714 
0.0354029 0.0527493 0.0197575 0.0389555 0.0544256 0.0209552 0.0425649 0.0559074 0.0220163 
0.0463165 0.0569029 0.022736 0.0499712 0.0576871 0.0232816 0.053426 0.0580353 0.0234681 
0.0565635 0.0581984 0.0234617 0.0591546 0.0580428 0.0231231 0.0611624 0.0577443 0.0225997 
0.0623243 0.0572386 0.0218086 0.0626368 0.0565782 0.0208762 0.061907 0.0557278 0.0197705 
0.0601548 0.0545726 0.0186095 0.0370996 0.0492397 0.0160412 0.0404088 0.0507633 0.0170591 
0.0437775 0.0521457 0.0179484 0.047295 0.053175 0.0185163 0.0507344 0.0540696 0.0189129 
0.0540128 0.0546867 0.0189565 0.0570006 0.055217 0.0187976 0.0594878 0.0555976 0.0182899 
0.0613979 0.0559481 0.0175718 0.0624714 0.056255 0.0165486 0.0626388 0.0565105 0.0153513 
0.0616942 0.056703 0.0139404 0.0595802 0.0566192 0.0124641 0.0387474 0.0457706 0.0124664 
0.0418328 0.0471425 0.0133066 0.0449824 0.0484245 0.0140246 0.0482929 0.0494815 0.0144372 
0.0515466 0.0504786 0.0146792 0.0546832 0.0513521 0.0145694 0.0575581 0.0522362 0.014244 
0.0599824 0.0531383 0.0135473 0.0618369 0.0541263 0.0126091 0.0628652 0.0552386 0.0113209 
0.0629247 0.0564125 0.00981843 0.0617951 0.0576617 0.00805319 0.0593286 0.0586768 0.00620641 
0.0401018 0.0425448 0.00974078 0.0430804 0.0437707 0.0104156 0.0461412 0.0449461 0.0109653 
0.0494076 0.0459952 0.0112023 0.0526528 0.0470462 0.0112553 0.0558545 0.0481011 0.010929 
0.058838 0.0492592 0.0103531 0.0614458 0.0505948 0.00934759 0.0634963 0.0521505 0.00803773 
0.0647385 0.0540255 0.00628657 0.0649136 0.0561318 0.00423751 0.0637788 0.058522 0.00182284 
0.0610157 0.0608005 -0.000724491 0.0413918 0.0393615 0.00717343 0.0442805 0.0404346 0.00768512 
0.0472717 0.0414935 0.00806751 0.0505192 0.042517 0.00812668 0.053785 0.0435998 0.00798626 
0.0570885 0.0448049 0.0074342 0.0602237 0.0462011 0.00659428 0.0630689 0.047926 0.00525863 
0.0653776 0.0500034 0.00354613 0.0669082 0.052592 0.00128723 0.0672743 0.0555896 -0.0013716 
0.0662113 0.0590891 -0.00452127 0.0631988 0.0626232 -0.00787778 0.0423953 0.0363678 0.0053096 
0.0452691 0.0372576 0.00566804 0.0482764 0.0381558 0.00588736 0.0516171 0.0390747 0.00575889 
0.0550322 0.040091 0.0054052 0.0586007 0.0413079 0.00458698 0.0620789 0.0427825 0.00342255 
0.0654013 0.0447007 0.00166187 0.0682452 0.0470948 -0.000590775 0.0703949 0.0501792 -0.00355676 
0.071288 0.0538849 -0.00710599 0.0706387 0.0583533 -0.011371 0.0675857 0.0631072 -0.0160194 
0.0433016 0.0334177 0.00362396 0.0461688 0.0341093 0.00383303 0.0492016 0.0348271 0.00389261 
0.0526484 0.0356107 0.00357847 0.0562288 0.0365215 0.00301237 0.0600843 0.0376947 0.00192658 
0.0639351 0.0391786 0.000432989 0.0677775 0.0411976 -0.00176294 0.0712156 0.0437958 -0.00457642 
0.0740677 0.0472339 -0.00828534 0.0755906 0.0514846 -0.0127898 0.0754822 0.0567325 -0.0182707 
0.072497 0.0625169 -0.0243666 0.0438723 0.0306182 0.00255389 0.046761 0.0310599 0.00262699 
0.0498523 0.0315301 0.00253834 0.0534501 0.0320717 0.00204531 0.0572506 0.0327426 0.00126978 
0.061469 0.0336803 -8.84043e-05 0.0657945 0.0349349 -0.00192721 0.0703044 0.0367352 -0.00459373 
0.0745415 0.0391482 -0.00803952 0.0783831 0.0424494 -0.0126152 0.0808914 0.046681 -0.0182991 
0.0817633 0.0520544 -0.0253429 0.0792197 0.0582151 -0.0334236 0.0250422 0.0635792 0.0498805 
0.0309816 0.0663587 0.0522973 0.0371019 0.0686324 0.0543769 0.0436747 0.0696414 0.0556139 
0.0501336 0.0700062 0.0564603 0.056358 0.0690422 0.0565009 0.0621057 0.0674274 0.056204 
0.0670327 0.0646917 0.0553255 0.0711617 0.0614175 0.0542465 0.0741338 0.0573625 0.052877 
0.0761069 0.0529324 0.0514599 0.0768538 0.0480419 0.0499845 0.0765496 0.0429349 0.0485647 
0.0281761 0.0609139 0.0420663 0.0333581 0.0633071 0.0441403 0.0386693 0.0652729 0.0459534 
0.0443035 0.0661701 0.0471143 0.0498236 0.0665302 0.0479716 0.0551079 0.0657826 0.0482025 
0.0599734 0.0644861 0.048158 0.0641179 0.0622445 0.047639 0.0675588 0.059532 0.0469324 
0.0699795 0.0561367 0.0459538 0.0715016 0.0523884 0.0448941 0.0719206 0.0482066 0.0437351 
0.0713776 0.0437824 0.0425768 0.0305878 0.0577959 0.0358707 0.0352108 0.0599137 0.0376856 
0.0399329 0.0616717 0.0392822 0.0449028 0.0625302 0.0403332 0.0497593 0.0629428 0.0411273 
0.0543817 0.0624355 0.0413911 0.0586196 0.0614729 0.0414126 0.0621951 0.059726 0.0410167 
0.0651201 0.0575807 0.0404413 0.0671016 0.0548577 0.0396055 0.0682351 0.051814 0.0386746 
0.0683278 0.0483767 0.0376272 0.0674961 0.044673 0.0365606 0.032967 0.0546773 0.0297575 
0.0370419 0.056525 0.031316 0.0411868 0.0580798 0.0326975 0.0455068 0.0589025 0.0336366 
0.0497145 0.0593695 0.0343636 0.0536903 0.0591032 0.0346532 0.0573149 0.0584745 0.0347322 
0.0603347 0.0572217 0.0344484 0.0627548 0.0556436 0.0339924 0.0643054 0.0535937 0.0332865 
0.0650555 0.0512566 0.0324716 0.0648233 0.0485672 0.031523 0.0636999 0.0455881 0.0305367 
0.0348487 0.051549 0.0249092 0.0385422 0.0532073 0.0262521 0.0422924 0.0546294 0.0274386 
0.0461841 0.055461 0.028234 0.0499686 0.0560148 0.0288369 0.053532 0.0559959 0.0290431 
0.0567653 0.0557023 0.0290484 0.0594299 0.0549361 0.0287078 0.0615158 0.0539256 0.0281904 
0.0627625 0.052561 0.0274166 0.0632084 0.0509605 0.0265215 0.0626714 0.0490702 0.0254774 
0.0612125 0.0468771 0.0243936 0.036691 0.0484378 0.0201734 0.0400185 0.0499114 0.0213031 
0.0433907 0.0512044 0.0222952 0.0468746 0.052046 0.0229436 0.0502574 0.0526866 0.0234173 
0.0534317 0.0529127 0.0235306 0.0562968 0.0529518 0.0234506 0.0586291 0.052669 0.0230377 
0.0604017 0.0522247 0.0224413 0.0613627 0.0515463 0.0215786 0.0615172 0.0506863 0.0205803 
0.0606821 0.0496035 0.0194155 0.0588852 0.0482079 0.018209 0.0381868 0.0454768 0.0164284 
0.0412834 0.0468075 0.0173638 0.0444256 0.0480039 0.0181672 0.0476818 0.0488646 0.0186406 
0.0508512 0.0495913 0.0189394 0.0538412 0.0500419 0.0188776 0.0565415 0.0503909 0.0186103 
0.0587429 0.0505652 0.0179889 0.0603864 0.0506744 0.0171572 0.0612209 0.050689 0.0160203 
0.0611983 0.0506062 0.0147175 0.0601241 0.0504039 0.0132111 0.057966 0.0499058 0.0116603 
0.039637 0.042545 0.0128172 0.0425197 0.0437332 0.01356 0.0454509 0.0448317 0.0141748 
0.0485034 0.0457063 0.0144698 0.0514851 0.0465121 0.0145878 0.0543207 0.0471762 0.0143405 
0.0568881 0.0478234 0.0138719 0.0589935 0.0484414 0.0130221 0.0605429 0.0490925 0.0119301 
0.061286 0.0497915 0.0104866 0.0611158 0.0504837 0.00883998 0.0598247 0.0511676 0.00694417 
0.0573108 0.0515818 0.00499656 0.0408129 0.039788 0.0100083 0.0435844 0.0408366 0.0105689 
0.0464188 0.0418304 0.0109965 0.0494104 0.0426871 0.0110918 0.0523595 0.0435292 0.010994 
0.0552208 0.0443412 0.0104981 0.057846 0.0452155 0.00974451 0.0600648 0.0461971 0.00854736 
0.0617301 0.0473215 0.00704486 0.0625927 0.0486531 0.00509963 0.0624513 0.0501072 0.00287338 
0.0610777 0.0517117 0.000302244 0.0582392 0.0531264 -0.00235772 0.0419276 0.0370653 0.00735321 
0.0446029 0.0379678 0.00773378 0.0473575 0.0388476 0.00797521 0.0503104 0.0396704 0.00786876 
0.0532521 0.0405289 0.00755105 0.0561704 0.0414612 0.00679761 0.0588897 0.0425306 0.00574594 
0.061266 0.0438364 0.00418063 0.0630966 0.0453925 0.00223796 0.0641358 0.0473114 -0.000251872 
0.064079 0.0494865 -0.00311695 0.062677 0.0519761 -0.00644257 0.059544 0.0543707 -0.0099129 
0.0427704 0.0344956 0.00538111 0.0454158 0.0352227 0.00559192 0.0481661 0.0359472 0.00565187 
0.0511789 0.0366648 0.00533467 0.0542252 0.0374516 0.00477818 0.0573406 0.0383807 0.00372815 
0.0603145 0.0395031 0.00231975 0.0630446 0.0409584 0.000294164 0.0652602 0.0427606 -0.00222095 
0.06673 0.0450661 -0.00544587 0.0670057 0.0477807 -0.00921271 0.0658159 0.0509973 -0.0136446 
0.0625219 0.0542799 -0.018361 0.0435208 0.0319651 0.00358645 0.0461436 0.0325029 0.00363193 
0.0488982 0.0330541 0.00351436 0.0519825 0.0336387 0.00298916 0.0551473 0.0343189 0.00219562 
0.0584784 0.0351962 0.000848675 0.061731 0.0363115 -0.000919734 0.0648483 0.0378367 -0.00341398 
0.0674933 0.0397896 -0.00651916 0.0694535 0.0423626 -0.0105102 0.0701323 0.0454811 -0.0152339 
0.0692387 0.0492689 -0.0208568 0.0658516 0.0532827 -0.0269458 0.043952 0.0295703 0.00240478 
0.0465774 0.0298703 0.00230027 0.0493658 0.0301861 0.00201884 0.0525615 0.0305415 0.0012951 
0.0558929 0.0309953 0.000270534 0.0595042 0.031652 -0.00137445 0.0631188 0.0325526 -0.00351423 
0.0667391 0.0338735 -0.00650613 0.0699663 0.0356468 -0.0102622 0.0726236 0.038076 -0.0151264 
0.0739499 0.0411301 -0.0209973 0.0736426 0.0449509 -0.0281037 0.070397 0.0491546 -0.0360028 
0.0277035 0.0560059 0.0484021 0.0331403 0.0584506 0.05072 0.0387375 0.0604632 0.0527362 
0.0447358 0.0613957 0.0539982 0.0506409 0.0617681 0.0549128 0.0563534 0.0609853 0.055111 
0.0616509 0.0596103 0.0550074 0.0662336 0.0572154 0.0543839 0.0700975 0.0542909 0.0535767 
0.072919 0.0505983 0.0525029 0.0748064 0.0464936 0.0513764 0.0755473 0.0418831 0.0501851 
0.0752662 0.0369996 0.0490259 0.0304584 0.0541372 0.0411971 0.0352423 0.0562422 0.0432114 
0.0401404 0.0579743 0.0449882 0.0453238 0.0587737 0.0461715 0.0504059 0.0590966 0.0470795 
0.0552789 0.0584369 0.04742 0.0597747 0.0572713 0.0475096 0.0636208 0.0552347 0.0471671 
0.0668195 0.0527363 0.0466502 0.0690791 0.0495683 0.0458802 0.07049 0.0460253 0.045028 
0.0708593 0.0420218 0.0440748 0.0702947 0.0377428 0.0431072 0.0325791 0.0517158 0.0353145 
0.0368652 0.0535719 0.0370798 0.0412374 0.0551093 0.0386439 0.0458247 0.0558503 0.039705 
0.0503068 0.0561901 0.04053 0.0545719 0.0557027 0.0408678 0.0584834 0.0547904 0.0409818 
0.0617859 0.0531466 0.0407105 0.0644822 0.0511091 0.0402706 0.0662997 0.048501 0.0395861 
0.0673134 0.0455554 0.0388076 0.0673406 0.0421955 0.0379137 0.066475 0.0385493 0.0369918 
0.0346706 0.049287 0.0295032 0.0384678 0.0508985 0.0310213 0.042324 0.0522455 0.0323733 
0.0463273 0.0529311 0.0333099 0.0502219 0.0532903 0.0340479 0.0538924 0.0529766 0.0343764 
0.0572321 0.0523187 0.0345069 0.0600025 0.0510683 0.0342966 0.0622067 0.0494927 0.0339228 
0.0635899 0.0474459 0.0333121 0.0642116 0.0450996 0.0325956 0.0638988 0.042386 0.0317494 
0.0627303 0.0393754 0.0308629 0.0363136 0.0467443 0.0247832 0.0397597 0.0481799 0.0260818 
0.0432513 0.0493987 0.0272312 0.0468565 0.0500755 0.0280075 0.0503546 0.0504926 0.0286009 
0.0536317 0.050374 0.0288168 0.0565931 0.0499881 0.0288415 0.0590105 0.0491416 0.0285369 
0.0608778 0.0480425 0.0280636 0.0619475 0.0465773 0.0273458 0.0622571 0.0448598 0.0265124 
0.0616337 0.0428325 0.0255374 0.0601355 0.0404999 0.024526 0.0379202 0.0442098 0.0201646 
0.0410284 0.0454736 0.0212453 0.0441699 0.0465676 0.0221922 0.0473945 0.0472369 0.0228049 
0.0505146 0.0477123 0.0232485 0.0534187 0.0477876 0.023343 0.0560217 0.0476719 0.023251 
0.0581062 0.0472274 0.0228375 0.0596549 0.0466037 0.0222481 0.0604268 0.0457204 0.0214035 
0.0604354 0.0446339 0.0204321 0.0595072 0.0432982 0.0193051 0.0576771 0.0416504 0.0181459 
0.0392072 0.0417469 0.016438 0.0420929 0.042875 0.0173143 0.045011 0.0438732 0.0180601 
0.0480106 0.0445469 0.0184802 0.0509154 0.0450849 0.0187287 0.0536244 0.0453428 0.0186236 
0.0560463 0.0454837 0.0183183 0.0579735 0.0454231 0.0176683 0.0593639 0.0452651 0.0168169 
0.0599761 0.0449658 0.0156732 0.0597825 0.0445316 0.0143774 0.0585998 0.0439318 0.0128947 
0.0564184 0.0430293 0.0113855 0.0404513 0.039305 0.0128361 0.0431293 0.0402976 0.0135093 
0.0458408 0.0411991 0.0140542 0.048636 0.0418727 0.0142782 0.0513479 0.0424672 0.0143262 
0.0538878 0.0428984 0.0140115 0.0561557 0.0432856 0.0134799 0.057955 0.043597 0.0125749 
0.0592162 0.0438936 0.0114381 0.059697 0.044169 0.00996544 0.059324 0.0443817 0.0083093 
0.0579033 0.0445175 0.00642806 0.055373 0.0443658 0.00452199 0.0414376 0.0369887 0.00998201 
0.0439974 0.0378477 0.010461 0.0466016 0.0386461 0.0108052 0.0493172 0.0392928 0.0108125 
0.0519709 0.0399075 0.0106268 0.0544971 0.0404561 0.010043 0.0567741 0.0410279 0.00920674 
0.0586219 0.0416397 0.00793553 0.0599274 0.0423255 0.00637437 0.0604468 0.0431189 0.00439279 
0.0600324 0.0439464 0.00216138 0.0584722 0.0448161 -0.000376656 0.0556079 0.0454476 -0.00296015 
0.0423661 0.0347013 0.0072754 0.0448207 0.0354207 0.00756252 0.0473327 0.0361076 0.00770733 
0.0499879 0.0367132 0.00749636 0.0526052 0.0373306 0.00707326 0.0551445 0.0379723 0.00621264 
0.0574607 0.0387008 0.0050598 0.0593928 0.0395785 0.00340372 0.0607816 0.0406167 0.00139158 
0.0613827 0.0418874 -0.00113685 0.0609674 0.0432914 -0.00399498 0.0593048 0.0448588 -0.00725777 
0.0561245 0.0462467 -0.0106009 0.0430372 0.0325423 0.00522418 0.0454452 0.033095 0.00533011 
0.0479312 0.033633 0.00528111 0.0506122 0.0341344 0.00484479 0.0532901 0.0346769 0.00416812 
0.0559617 0.035304 0.00299573 0.058451 0.0360648 0.0014738 0.0606264 0.0370556 -0.000650109 
0.0622709 0.0382821 -0.00323123 0.0631456 0.0398502 -0.00647532 0.0629091 0.0416594 -0.0101888 
0.0613088 0.0437646 -0.0144784 0.0578931 0.0457891 -0.0189467 0.0436212 0.0304207 0.00334745 
0.045989 0.0307938 0.00327711 0.0484567 0.0311667 0.00303881 0.051174 0.0315391 0.00238064 
0.0539248 0.0319761 0.00145305 0.0567446 0.0325464 -3.02e-05 0.0594268 0.0332881 -0.0019228 
0.0618718 0.034325 -0.00452037 0.0638049 0.0356603 -0.00768385 0.0649959 0.037428 -0.0116679 
0.0649859 0.0395326 -0.0162796 0.0635018 0.0420507 -0.0216617 0.0598918 0.0445864 -0.0273504 
0.0439039 0.0284284 0.00207351 0.0462543 0.0285772 0.00184388 0.0487303 0.0287286 0.00143187 
0.05152 0.0288865 0.000563907 0.054386 0.0291128 -0.000605434 0.0574094 0.02948 -0.00239636 
0.0603527 0.0300252 -0.00466503 0.0631581 0.0308768 -0.00775649 0.0654937 0.0320461 -0.0115485 
0.0671478 0.0336759 -0.0163564 0.0675289 0.0356963 -0.0220143 0.0663476 0.0381959 -0.0287157 
0.0626855 0.04081 -0.0359544 0.0302415 0.0490517 0.0463344 0.035223 0.0512074 0.0485567 
0.0403483 0.0529922 0.0505169 0.0458331 0.05385 0.0518219 0.0512429 0.0542159 0.0528279 
0.0564982 0.0535675 0.0532173 0.0613919 0.0523739 0.0533466 0.065663 0.0502414 0.0530277 
0.0692837 0.0475849 0.0525466 0.0719615 0.0441687 0.0518303 0.0737608 0.0403078 0.0510579 
0.074482 0.0359013 0.0502167 0.074204 0.0311737 0.0493807 0.0326627 0.0477966 0.039786 
0.0370806 0.0496382 0.0417447 0.0415998 0.0511526 0.0434938 0.0463723 0.0518489 0.0447186 
0.0510551 0.0521188 0.0457021 0.055553 0.0515094 0.0461876 0.0597105 0.0504291 0.0464524 
0.0632816 0.0485379 0.0463369 0.0662545 0.0461914 0.0460645 0.0683599 0.0431846 0.0455644 
0.0696601 0.0397836 0.0449819 0.0699719 0.035899 0.0442982 0.0693733 0.0317122 0.0435816 
0.0345079 0.0459553 0.0342687 0.0384804 0.0475636 0.0359911 0.0425275 0.048888 0.0375335 
0.0467612 0.0495027 0.0386258 0.0508973 0.0497532 0.0395079 0.054832 0.0492526 0.0399564 
0.0584407 0.0483516 0.040205 0.0614881 0.0467613 0.0401092 0.0639693 0.0447803 0.03986 
0.0656297 0.0422328 0.0393881 0.0665258 0.0393337 0.0388243 0.0664842 0.036003 0.0381477 
0.0655776 0.0323721 0.0374309 0.0363261 0.0441026 0.028811 0.0398605 0.0454816 0.030298 
0.0434436 0.0466199 0.0316337 0.0471487 0.0471563 0.032591 0.0507485 0.0473904 0.033368 
0.0541312 0.0470007 0.0337732 0.0572022 0.0462811 0.0339983 0.0597363 0.0449932 0.0339132 
0.0617351 0.0433793 0.0336775 0.0629579 0.0412929 0.0332235 0.0634554 0.0388973 0.0326682 
0.0630628 0.0361223 0.0319887 0.0618477 0.0330489 0.0312628 0.0377308 0.0420751 0.0242657 
0.0409391 0.0432869 0.0255323 0.0441826 0.0442977 0.0266609 0.0475139 0.0448061 0.0274442 
0.0507382 0.0450688 0.0280588 0.0537419 0.0448247 0.0283256 0.0564434 0.0443174 0.0284161 
0.0586245 0.0433569 0.028203 0.0602831 0.0421352 0.027834 0.061184 0.0405349 0.0272389 
0.0613641 0.0386692 0.0265361 0.0606596 0.0364778 0.0257011 0.059126 0.0339848 0.0248298 
0.0391015 0.0400498 0.0198098 0.0419949 0.041098 0.0208569 0.044911 0.0419845 0.0217781 
0.0478835 0.0424668 0.0223842 0.0507482 0.0427593 0.0228316 0.0533903 0.0426605 0.0229517 
0.0557398 0.0423649 0.0228977 0.0575853 0.0417306 0.0225437 0.0589194 0.0409002 0.0220266 
0.0595118 0.0397857 0.0212732 0.0593843 0.0384508 0.0204044 0.0583731 0.0368453 0.019394 
0.0565194 0.0349358 0.0183577 0.0401731 0.0380439 0.01614 0.0428492 0.0389615 0.0169761 
0.0455455 0.0397517 0.0176877 0.0482921 0.0402235 0.0180876 0.0509368 0.0405555 0.018325 
0.053371 0.0405996 0.0182269 0.0555216 0.0405103 0.017941 0.0571839 0.0401915 0.0173318 
0.0583325 0.0397453 0.0165372 0.0587361 0.0391146 0.0154737 0.0583866 0.0383183 0.0142764 
0.0571128 0.0373188 0.0129149 0.0549251 0.03602 0.0115416 0.0412042 0.0360532 0.0125846 
0.0436758 0.0368407 0.013211 0.0461666 0.0375339 0.0137129 0.0487053 0.0379916 0.0139037 
0.0511492 0.0383583 0.013926 0.0533977 0.0385376 0.0136009 0.0553725 0.038646 0.0130717 
0.056876 0.0386323 0.0121911 0.0578627 0.0385602 0.0110988 0.0580999 0.0384035 0.0096995 
0.0575462 0.0381385 0.00814348 0.0560216 0.0377405 0.00639505 0.0535006 0.0370514 0.00464653 
0.041992 0.0341548 0.00971619 0.0443362 0.0348143 0.0101403 0.0467073 0.035406 0.0104327 
0.0491456 0.0358284 0.0103957 0.0515047 0.0362005 0.0101733 0.0537001 0.036469 0.00956834 
0.055637 0.036723 0.00872666 0.0571284 0.0369521 0.00747721 0.0580951 0.0371934 0.00596656 
0.0583009 0.0374527 0.00407716 0.0576491 0.0376748 0.00198075 0.0559448 0.037851 -0.000369728 
0.0530951 0.037765 -0.00272268 0.0427252 0.032282 0.0069877 0.0449535 0.0328081 0.00721205 
0.0472179 0.033291 0.00729638 0.0495727 0.0336658 0.00703069 0.0518656 0.0340283 0.00656078 
0.0540307 0.0343653 0.00566972 0.0559544 0.0347411 0.00450585 0.0574623 0.0351835 0.00287215 
0.0584389 0.0357066 0.000921476 0.0586452 0.0363467 -0.00148882 0.0579241 0.0370213 -0.00416631 
0.0560647 0.0377381 -0.00717172 0.0528967 0.0382273 -0.0101913 0.0432158 0.030523 0.00488112 
0.0453791 0.0308916 0.00491701 0.0475946 0.0312329 0.00480015 0.0499407 0.0315058 0.00430142 
0.0522506 0.031792 0.00357189 0.0544858 0.0321055 0.00236631 0.0565066 0.0324969 0.000837125 
0.0581581 0.0330222 -0.00124936 0.059278 0.0336859 -0.00373642 0.0596269 0.0345504 -0.0068043 
0.058964 0.0355243 -0.0102437 0.0570591 0.0366324 -0.0141391 0.0536188 0.0375725 -0.0181016 
0.0436247 0.0288016 0.00294429 0.0457291 0.029001 0.00279703 0.0479027 0.0291862 0.00248399 
0.0502495 0.0293356 0.00175647 0.0525874 0.0295192 0.000770897 0.0549066 0.0297733 -0.000746899 
0.0570409 0.0301373 -0.00264094 0.0588566 0.0306905 -0.00518297 0.0601442 0.0314306 -0.00821457 
0.060666 0.0324418 -0.0119561 0.0600934 0.033629 -0.016186 0.0581777 0.0350324 -0.0210153 
0.0544906 0.0363284 -0.0259832 0.0437515 0.02721 0.00159382 0.0458175 0.0271999 0.00128183 
0.0479734 0.0271786 0.000789922 0.0503539 0.0271298 -0.000151778 0.0527575 0.02712 -0.00138095 
0.0552086 0.027191 -0.00320303 0.0575129 0.0273795 -0.0054604 0.0595644 0.0277702 -0.00846743 
0.0611045 0.0283646 -0.0120718 0.0619031 0.0292541 -0.0165423 0.0615321 0.030358 -0.0216615 
0.0597254 0.031725 -0.0275769 0.0558796 0.0330488 -0.033765 0.0326481 0.0428975 0.0438896 
0.0372478 0.0448122 0.0460453 0.0419792 0.0464037 0.0479799 0.04704 0.0471875 0.0493618 
0.052042 0.047531 0.0504948 0.0569231 0.0469666 0.0511146 0.0614859 0.0458905 0.0515191 
0.0655006 0.0439333 0.0515527 0.0689183 0.0414527 0.05145 0.0714704 0.0382131 0.0511496 
0.0731831 0.0344999 0.050792 0.0738657 0.0302051 0.0503643 0.0735576 0.0255506 0.0499117 
0.0347867 0.0420671 0.0379696 0.0388938 0.043674 0.0398948 0.0430925 0.0449894 0.0416407 
0.0475201 0.045576 0.0429385 0.0518684 0.0457741 0.0440318 0.0560533 0.0451711 0.0447036 
0.0599275 0.0441222 0.0451888 0.0632668 0.0423054 0.0453526 0.0660461 0.0400356 0.0453806 
0.0680134 0.0371089 0.045212 0.0692061 0.0337716 0.0449621 0.0694481 0.0299304 0.0446125 
0.0687906 0.0257685 0.0442077 0.0363776 0.0406708 0.0328263 0.0400805 0.0420495 0.0345262 
0.043849 0.0431712 0.0360703 0.0477818 0.0436503 0.0372247 0.0516236 0.0437927 0.0381985 
0.0552779 0.043241 0.0387997 0.0586289 0.042306 0.039229 0.0614577 0.0407111 0.0393622 
0.0637518 0.0387259 0.0393606 0.0652707 0.0361746 0.0391636 0.0660546 0.0332604 0.0388777 
0.0659365 0.0299008 0.0384827 0.0649709 0.0262346 0.038031 0.0379429 0.0392618 0.0277318 
0.0412474 0.0404163 0.0292067 0.0445925 0.0413482 0.0305484 0.0480389 0.0417235 0.0315569 
0.0513831 0.0418138 0.0324075 0.0545167 0.0413164 0.0329325 0.0573542 0.0404982 0.0332995 
0.059682 0.0391277 0.0333943 0.0614996 0.0374293 0.0333549 0.0625774 0.0352554 0.0331207 
0.062958 0.0327659 0.0327902 0.062483 0.0298891 0.0323416 0.0612097 0.0267191 0.0318359 
0.0391147 0.0376597 0.0233851 0.0421118 0.0386507 0.0246399 0.0451354 0.0394523 0.0257711 
0.0482251 0.0397805 0.0265937 0.0512083 0.0398723 0.0272662 0.0539716 0.0394768 0.0276291 
0.0564447 0.0388195 0.0278352 0.0584177 0.0377115 0.0277714 0.0598916 0.0363346 0.0275679 
0.0606415 0.0345678 0.027162 0.0607036 0.0325278 0.0266564 0.0599212 0.0301523 0.0260286 
0.0583466 0.0274862 0.0253592 0.0402541 0.0360571 0.0191161 0.0429532 0.0368883 0.0201513 
0.0456657 0.0375629 0.0210717 0.0484118 0.0378465 0.0217052 0.0510476 0.0379418 0.0221951 
0.053456 0.0376489 0.0223888 0.0555797 0.0371528 0.0224255 0.0572133 0.0363069 0.022192 
0.0583574 0.0352511 0.0218121 0.0587916 0.0338912 0.02122 0.0585437 0.0323005 0.0205241 
0.0574588 0.0304267 0.0197009 0.0555822 0.0282649 0.0188521 0.0411089 0.0344505 0.0155312 
0.0435924 0.0351547 0.0163515 0.0460854 0.0357319 0.0170567 0.0486021 0.0359917 0.0174743 
0.0510112 0.0361068 0.0177431 0.0531986 0.0359232 0.0177049 0.0551071 0.0355916 0.0174968 
0.0565355 0.0350048 0.0169961 0.0574725 0.034267 0.0163303 0.0576971 0.0333102 0.0154251 
0.0572167 0.0321685 0.0144047 0.0558711 0.0307997 0.0132429 0.0536855 0.0291463 0.0120768 
0.0419252 0.0328567 0.0120504 0.0442043 0.0334346 0.0126569 0.0464902 0.0339142 0.0131471 
0.0487931 0.0341477 0.0133462 0.0509923 0.0342789 0.0133898 0.0529777 0.0341987 0.0131125 
0.0546907 0.0340245 0.0126501 0.0559344 0.033688 0.0118687 0.056684 0.0332592 0.0109005 
0.0567173 0.0326964 0.00966149 0.0560183 0.0319954 0.00829239 0.0544208 0.0311247 0.00676366 
0.0519265 0.0299748 0.00525077 0.042511 0.0313399 0.00919443 0.0446523 0.0317956 0.00959431 
0.0468054 0.032176 0.00987008 0.048988 0.0323684 0.00983559 0.0510777 0.0324938 0.00962942 
0.0529758 0.0324809 0.00906916 0.0546111 0.0324218 0.00829504 0.0557939 0.0322832 0.00715261 
0.0564741 0.0321096 0.00578336 0.0564253 0.031885 0.00408525 0.055592 0.0315755 0.00222225 
0.053796 0.031162 0.000156891 0.0509935 0.030486 -0.00188023 0.0430455 0.0298479 0.00646992 
0.0450592 0.0301767 0.00666591 0.047091 0.0304518 0.00672924 0.049168 0.0305927 0.00646093 