# vtk DataFile Version 2.0
vtk output
ASCII
DATASET RECTILINEAR_GRID
DIMENSIONS 13 13 13
X_COORDINATES 13 float
-7.5 -7.29167 -7.08333 -6.875 -6.66667 -6.45833 -6.25 -6.04167 -5.83333 
-5.625 -5.41667 -5.20833 -5 
Y_COORDINATES 13 float
5 5.20833 5.41667 5.625 5.83333 6.04167 6.25 6.45833 6.66667 
6.875 7.08333 7.29167 7.5 
Z_COORDINATES 13 float
-5 -4.79167 -4.58333 -4.375 -4.16667 -3.95833 -3.75 -3.54167 -3.33333 
-3.125 -2.91667 -2.70833 -2.5 
POINT_DATA 2197
VECTORS grad float
-0.0198953 -0.0207435 0.035608 -0.0228407 -0.0181709 0.0254362 -0.0264814 -0.0155189 0.0144366 
-0.0318602 -0.0126688 0.00136764 -0.0383037 -0.00955 -0.0126918 -0.046943 -0.00587732 -0.028794 
-0.056763 -0.00160186 -0.0464506 -0.0686163 0.00371171 -0.0667843 -0.0807211 0.0100782 -0.0899214 
-0.0931906 0.0179715 -0.117124 -0.102013 0.027294 -0.148797 -0.106361 0.0383707 -0.185959 
-0.0985717 0.0505359 -0.226824 -0.0172396 -0.0152472 0.0299559 -0.0199935 -0.0124568 0.0202109 
-0.0233569 -0.00944098 0.00969166 -0.0282442 -0.00586157 -0.00276321 -0.0340389 -0.00171921 -0.0161302 
-0.0417052 0.00358421 -0.0313783 -0.050323 0.0100105 -0.0480275 -0.0605794 0.0183705 -0.0670898 
-0.0708511 0.0286173 -0.0886311 -0.0811452 0.0416001 -0.113767 -0.0878398 0.0571365 -0.142749 
-0.0901169 0.075807 -0.176451 -0.0812634 0.0964228 -0.213045 -0.0143945 -0.00981999 0.0240249 
-0.0167653 -0.00683188 0.0147777 -0.0196086 -0.00349431 0.00482896 -0.0236327 0.000716922 -0.0068737 
-0.0283256 0.00574453 -0.0193702 -0.034398 0.0124559 -0.033504 -0.0410712 0.0207383 -0.0487904 
-0.0487793 0.0317265 -0.0660619 -0.056127 0.0453032 -0.0852691 -0.0629521 0.0626331 -0.107283 
-0.0662394 0.0834099 -0.132082 -0.0651849 0.108417 -0.1603 -0.0546154 0.135979 -0.190026 
-0.0114532 -0.00512093 0.0179377 -0.0133145 -0.00204617 0.00919091 -0.015476 0.0014625 -0.000173854 
-0.0183882 0.00605595 -0.0110835 -0.0216807 0.01164 -0.0226427 -0.0257576 0.0192673 -0.0355416 
-0.0300305 0.0287662 -0.0492905 -0.034641 0.0414884 -0.0645032 -0.0384994 0.0572372 -0.0810206 
-0.0412674 0.0773744 -0.09943 -0.0406602 0.101452 -0.119487 -0.0359109 0.130366 -0.141565 
-0.0234811 0.162136 -0.163823 -0.00843379 -0.00101523 0.0117234 -0.00968215 0.00205571 0.00347899 
-0.0110303 0.00561275 -0.00529082 -0.0126279 0.010385 -0.0153743 -0.0142767 0.0162577 -0.0259417 
-0.016031 0.0244 -0.0375075 -0.0175322 0.034594 -0.0495764 -0.0185974 0.0483218 -0.0625119 
-0.0185061 0.0652993 -0.0760498 -0.0167378 0.0869888 -0.0904612 -0.0118393 0.112787 -0.105319 
-0.00309898 0.143628 -0.120724 0.0113087 0.177374 -0.135026 -0.00556662 0.00205688 0.0055323 
-0.00619114 0.00496658 -0.00229081 -0.0067067 0.00836882 -0.0105514 -0.00694986 0.0130024 -0.0199056 
-0.0069091 0.0187598 -0.029578 -0.00628276 0.0268349 -0.0399066 -0.00496672 0.0369966 -0.0503909 
-0.00246285 0.0507516 -0.0611435 0.00155715 0.0677643 -0.0718241 0.00777553 0.0895005 -0.0824002 
0.0168688 0.115282 -0.0923362 0.0294903 0.146028 -0.101487 0.0460102 0.17969 -0.108403 
-0.00280446 0.00441618 -0.000642751 -0.00279756 0.00705609 -0.00810056 -0.00246726 0.0101634 -0.015911 
-0.00132844 0.0144393 -0.0246029 0.000433456 0.0198028 -0.0334469 0.00348044 0.0274095 -0.0426045 
0.00764508 0.0370369 -0.0515701 0.0137346 0.0501444 -0.0602048 0.0216688 0.0663692 -0.0681123 
0.0322778 0.0871137 -0.0749652 0.0454991 0.11168 -0.0801708 0.0619263 0.140936 -0.0833546 
0.0806509 0.173094 -0.0832777 -0.000481747 0.00581858 -0.00665612 4.24362e-05 0.00805962 -0.0138958 
0.00108897 0.0107044 -0.021424 0.00344141 0.0143584 -0.0296737 0.00673095 0.0189945 -0.0379338 
0.0119532 0.025656 -0.0462153 0.0186803 0.034167 -0.0539899 0.0279989 0.0458629 -0.0608915 
0.0394564 0.0603995 -0.0664729 0.0540153 0.079055 -0.0701402 0.0710246 0.101167 -0.071257 
0.0910412 0.127522 -0.0692436 0.112199 0.156636 -0.0629432 0.00158582 0.00666535 -0.0125756 
0.00256101 0.00843257 -0.0196825 0.00424852 0.0105173 -0.0270261 0.00771682 0.013396 -0.0349614 
0.0124217 0.017111 -0.0427796 0.0196768 0.0225508 -0.0503562 0.0288001 0.0296073 -0.0571302 
0.0411407 0.0394478 -0.0625219 0.0558946 0.0517735 -0.0660368 0.0741475 0.0677027 -0.0668305 
0.0947474 0.0866419 -0.0642311 0.118228 0.109275 -0.0574674 0.141951 0.13445 -0.0453902 
0.00303759 0.00690067 -0.0181985 0.00425595 0.00817318 -0.0253379 0.00634325 0.00965789 -0.0326948 
0.0106029 0.0116731 -0.0405956 0.0163523 0.01434 -0.048296 0.025174 0.0183507 -0.0555831 
0.0361658 0.023682 -0.0618256 0.0508949 0.0312875 -0.0662692 0.0682486 0.0409287 -0.0683556 
0.089408 0.0535214 -0.067024 0.112833 0.0685078 -0.061587 0.139039 0.0864318 -0.0511113 
0.164877 0.106285 -0.0344462 0.00419078 0.00683952 -0.0236775 0.00555153 0.0076072 -0.0309295 
0.00792169 0.00847241 -0.0383958 0.0128154 0.00958148 -0.0463979 0.0194295 0.0111386 -0.0541377 
0.0295919 0.0136196 -0.0613365 0.0421963 0.0170946 -0.0672749 0.0590064 0.0222811 -0.0710429 
0.0786223 0.029008 -0.0720101 0.102306 0.0379685 -0.0689161 0.128185 0.0486239 -0.0610673 
0.156758 0.0613595 -0.0473832 0.184493 0.0752209 -0.0267067 0.00479401 0.00657241 -0.0286351 
0.00606755 0.00696523 -0.0361029 0.00844577 0.00735003 -0.0438143 0.0135857 0.00771477 -0.052135 
0.020612 0.00832454 -0.0601843 0.0315287 0.0094397 -0.0676738 0.0450701 0.0112048 -0.0737589 
0.0631316 0.0140893 -0.0774254 0.0840521 0.017977 -0.0779524 0.109118 0.0233193 -0.0739269 
0.136148 0.0295673 -0.0647228 0.165587 0.0369267 -0.0491632 0.193658 0.0443777 -0.0263242 
0.00517724 0.00622291 -0.0333841 0.00627174 0.00629288 -0.0411089 0.00854809 0.0062529 -0.0491198 
0.0137791 0.00593804 -0.0578459 0.0210364 0.00566548 -0.0663128 0.0324732 0.0054802 -0.0742447 
0.0466813 0.00559412 -0.0806568 0.0656622 0.00622334 -0.0844515 0.0875043 0.0073018 -0.0848098 
0.113495 0.00903168 -0.0801852 0.141154 0.0108416 -0.0700484 0.17086 0.0127497 -0.0531464 
0.198642 0.013623 -0.0288845 -0.0284741 -0.0263829 0.0349165 -0.0328946 -0.0234838 0.0257233 
-0.0380353 -0.0204635 0.0157853 -0.0449768 -0.0171404 0.00398526 -0.0531463 -0.0134865 -0.00876328 
-0.0638486 -0.00915046 -0.023468 -0.0761867 -0.00409547 -0.0397421 -0.0913419 0.00219772 -0.0587191 
-0.107525 0.00978159 -0.0806995 -0.125199 0.0192369 -0.107035 -0.139467 0.0305756 -0.138652 
-0.149555 0.0442258 -0.176753 -0.144256 0.0595518 -0.220435 -0.025513 -0.0209778 0.0291422 
-0.0296534 -0.0178073 0.0202915 -0.0344216 -0.0143528 0.0107401 -0.0407594 -0.0101878 -0.000563228 
-0.048144 -0.00535869 -0.0127429 -0.0576876 0.000840051 -0.0267301 -0.0685759 0.00837342 -0.0421348 
-0.0817803 0.0182053 -0.0599808 -0.095653 0.0303819 -0.0804878 -0.110495 0.0459583 -0.104853 
-0.12185 0.0649773 -0.133778 -0.128928 0.0882212 -0.168299 -0.12189 0.114555 -0.207316 
-0.0223192 -0.0156525 0.0233045 -0.0259608 -0.0122559 0.0148385 -0.0300797 -0.00843652 0.0057319 
-0.0353921 -0.00356037 -0.00497614 -0.04147 0.00226787 -0.0164507 -0.0491271 0.0100598 -0.0295064 
-0.0576713 0.0197162 -0.0437326 -0.0677435 0.0325835 -0.0599748 -0.0778947 0.048671 -0.0783037 
-0.0881606 0.0694278 -0.099658 -0.0947834 0.0948251 -0.124346 -0.0969353 0.125918 -0.153126 
-0.087028 0.161038 -0.18456 -0.0190366 -0.0110162 0.0174361 -0.0220397 -0.00754013 0.00933951 
-0.0253299 -0.00354903 0.000670629 -0.0293381 0.00172963 -0.00942897 -0.0337709 0.00815662 -0.0201624 
-0.0390794 0.016952 -0.032203 -0.0447493 0.0279629 -0.0451159 -0.0510418 0.0427894 -0.0595308 
-0.0568064 0.0613665 -0.0753745 -0.0618054 0.085382 -0.0932899 -0.0631484 0.114653 -0.113258 
-0.0600044 0.150375 -0.135744 -0.0471193 0.190507 -0.159192 -0.0156815 -0.00694132 0.0115428 
-0.0179323 -0.00350538 0.00380317 -0.0202476 0.000500198 -0.00443383 -0.0227246 0.0059299 -0.0139143 
-0.0252363 0.0126293 -0.0238772 -0.0278199 0.0219476 -0.0348348 -0.0301836 0.0336868 -0.0463243 
-0.0321689 0.0495955 -0.0587299 -0.0330047 0.0695042 -0.0718383 -0.0321738 0.0952128 -0.0859658 
-0.0277914 0.126317 -0.100819 -0.0190502 0.164044 -0.116564 -0.00309838 0.206111 -0.131695 
-0.0125493 -0.00384907 0.00570186 -0.0140485 -0.00064501 -0.00177087 -0.0153798 0.00312947 -0.00967328 
-0.0162916 0.00833001 -0.0186499 -0.0168416 0.0148216 -0.0279603 -0.0166453 0.0239759 -0.0379587 
-0.0156692 0.0355864 -0.0481503 -0.0133501 0.0514269 -0.0586744 -0.00933879 0.0712582 -0.0692098 
-0.00287395 0.0968763 -0.0797616 0.00699229 0.127747 -0.0898646 0.021033 0.165064 -0.0994171 
0.0401279 0.20663 -0.107027 -0.00957074 -0.0014345 -0.000102993 -0.0103188 0.00140545 -0.00737093 
-0.0106598 0.00477947 -0.0150058 -0.00998312 0.00948867 -0.0235582 -0.00854324 0.0154412 -0.0322974 
-0.0055293 0.0239579 -0.0414221 -0.00119011 0.0348485 -0.0504022 0.00543144 0.0498275 -0.0591331 
0.0142335 0.0686099 -0.0672074 0.0261973 0.0929072 -0.0743296 0.0413807 0.122118 -0.0799333 
0.0605157 0.157358 -0.0836734 0.0828062 0.196747 -0.0843117 -0.00715428 8.04391e-05 -0.00577048 
-0.00730217 0.00240961 -0.0129891 -0.00682039 0.00519118 -0.0205366 -0.00476445 0.00910374 -0.0289063 
-0.00157126 0.0141317 -0.0373445 0.00396749 0.0214603 -0.0459237 0.0113269 0.0309617 -0.0540515 
0.0218217 0.0442054 -0.061402 0.0349324 0.0609193 -0.0674822 0.051836 0.0826652 -0.0717206 
0.0718977 0.108848 -0.0734743 0.0958354 0.140478 -0.0721784 0.121661 0.176037 -0.0666268 
-0.00506422 0.00107302 -0.0113582 -0.00469952 0.00280624 -0.0186178 -0.00349226 0.00488386 -0.0261825 
-0.000178582 0.00782251 -0.03451 0.00463057 0.0117022 -0.0428037 0.0125241 0.0175229 -0.051028 
0.0227046 0.0252465 -0.0585123 0.0368236 0.0362474 -0.0647221 0.0539629 0.050301 -0.0690795 
0.0754816 0.0687808 -0.0707508 0.100167 0.0911428 -0.0690314 0.128738 0.11827 -0.0631505 
0.158296 0.149039 -0.0518632 -0.00372474 0.00154573 -0.0166796 -0.00310823 0.00267825 -0.0241562 
-0.00147358 0.00402599 -0.0319532 0.00270643 0.0059118 -0.0405514 0.00869073 0.00851978 -0.049065 
0.0183963 0.0126172 -0.0574039 0.0307873 0.0182767 -0.0647633 0.0478032 0.0266264 -0.0704357 
0.0681624 0.0375087 -0.0737233 0.0933696 0.0520634 -0.0735528 0.121756 0.069747 -0.0691837 
0.154045 0.0912706 -0.0596619 0.186766 0.11561 -0.0437225 -0.0027492 0.0017664 -0.0218719 
-0.00200731 0.0022959 -0.0296508 -8.98009e-05 0.00290118 -0.0377844 0.00476678 0.0036959 -0.0468052 
0.0117125 0.00497227 -0.055715 0.0229669 0.00724202 -0.0643962 0.0372724 0.0106986 -0.0718823 
0.0568326 0.016199 -0.0773099 0.0800197 0.0236625 -0.0798443 0.108466 0.0339725 -0.0781836 
0.140107 0.0465619 -0.0715642 0.175668 0.0619489 -0.0588591 0.211278 0.0790621 -0.038793 
-0.00239903 0.00192916 -0.0265389 -0.00180895 0.00204654 -0.034724 6.21146e-05 0.00211621 -0.0433378 
0.00513565 0.0020666 -0.0530234 0.0125111 0.00226272 -0.062635 0.0246342 0.00296565 -0.0720939 
0.0400731 0.00445847 -0.0802112 0.0612224 0.00731165 -0.0860177 0.0861149 0.011501 -0.0884932 
0.116435 0.0176277 -0.0861385 0.149694 0.0250599 -0.0782496 0.18656 0.0340944 -0.0635687 
0.222834 0.0434347 -0.0411369 -0.00229902 0.00206875 -0.0309958 -0.00197162 0.00185038 -0.0396287 
-0.000278726 0.00146719 -0.04878 0.00482791 0.000671957 -0.0592274 0.0124205 -0.00011163 -0.0696629 
0.0251401 -0.000871193 -0.0800737 0.0413999 -0.00124639 -0.0890241 0.0637563 -0.000959621 -0.095459 
0.0899052 1.33449e-05 -0.0981532 0.121553 0.0019813 -0.0954232 0.155776 0.00423106 -0.0866572 
0.193158 0.00682668 -0.0704832 0.229208 0.00817566 -0.0463901 -0.0362159 -0.0322808 0.0351648 
-0.041895 -0.0291045 0.0269574 -0.0483187 -0.0257759 0.0181177 -0.0566039 -0.0220666 0.00769702 
-0.0662683 -0.0179772 -0.00353529 -0.0787769 -0.0131038 -0.0164416 -0.0933653 -0.00741192 -0.0307034 
-0.111536 -0.00031028 -0.0472995 -0.131607 0.00830147 -0.0665691 -0.154433 0.0191029 -0.0897151 
-0.17452 0.0322527 -0.117842 -0.191246 0.0482846 -0.152081 -0.189746 0.0667136 -0.192212 
-0.033001 -0.0267987 0.0292789 -0.0383339 -0.0233285 0.0213466 -0.0443127 -0.0195302 0.0128138 
-0.0519063 -0.0149116 0.00277967 -0.0606749 -0.00954673 -0.00800922 -0.0718673 -0.00264275 -0.0203548 
-0.0847879 0.00578061 -0.0339272 -0.100685 0.0168206 -0.0496127 -0.117986 0.0306322 -0.0676664 
-0.137324 0.0484623 -0.0891541 -0.153655 0.0706462 -0.11494 -0.166294 0.0981735 -0.146001 
-0.162186 0.13018 -0.181844 -0.0295358 -0.0214324 0.0235015 -0.0342837 -0.0177336 0.015857 
-0.0395147 -0.0135575 0.00765604 -0.0459534 -0.00818824 -0.00193627 -0.0532463 -0.00175601 -0.0121951 
-0.0623007 0.00686857 -0.0238288 -0.0725211 0.0176146 -0.0364781 -0.0847493 0.0320141 -0.0508767 
-0.097559 0.0502216 -0.0671291 -0.111212 0.0739506 -0.0860697 -0.121378 0.103531 -0.108148 
-0.127266 0.140293 -0.134077 -0.11882 0.182823 -0.162906 -0.0260071 -0.0167524 0.0178078 
-0.0300233 -0.0130019 0.0104168 -0.0343156 -0.00867756 0.00251802 -0.0392984 -0.00291832 -0.00665059 
-0.0447451 0.00411737 -0.0163797 -0.0511485 0.0137857 -0.0272647 -0.0580749 0.025971 -0.0389101 
-0.0659017 0.0424913 -0.0518651 -0.0734735 0.063434 -0.0660869 -0.0806753 0.0907893 -0.0821457 
-0.084125 0.124716 -0.100144 -0.0829698 0.166708 -0.120524 -0.0702135 0.214889 -0.142109 
-0.0224267 -0.0126315 0.0121822 -0.0255916 -0.00897371 0.00501689 -0.0287899 -0.00468804 -0.00260392 
-0.0320714 0.00116731 -0.0113636 -0.0353701 0.00842846 -0.0205631 -0.0387044 0.018589 -0.0306695 
-0.0418529 0.031494 -0.0412452 -0.0446815 0.0491255 -0.0526289 -0.0464072 0.0714502 -0.0646333 
-0.0465337 0.10058 -0.0775374 -0.0428159 0.136368 -0.091154 -0.0343799 0.180328 -0.105645 
-0.0173379 0.230187 -0.119798 -0.019151 -0.00947272 0.00665785 -0.0214819 -0.00613072 -0.00038152 
-0.0235919 -0.00216893 -0.00783407 -0.0251494 0.00334235 -0.0163196 -0.0262687 0.0102756 -0.0251299 
-0.0264841 0.0201416 -0.0346096 -0.0258337 0.0327885 -0.0442679 -0.0236919 0.0502245 -0.0542334 
-0.0197171 0.0723323 -0.0642002 -0.0130844 0.101214 -0.0741686 -0.00261935 0.13652 -0.0837675 
0.012549 0.179712 -0.0929127 0.033824 0.228548 -0.100446 -0.0160854 -0.00697741 0.00120331 
-0.0175943 -0.00410511 -0.0057789 -0.01862 -0.000663874 -0.0131389 -0.0184378 0.00419975 -0.0214433 
-0.0173559 0.0104235 -0.0299611 -0.0144183 0.0194524 -0.038919 -0.0099542 0.0311668 -0.0477649 
-0.0028613 0.0475063 -0.0564178 0.00671369 0.0682942 -0.064471 0.0198877 0.0955324 -0.0716545 
0.03681 0.128741 -0.077487 0.0583326 0.169279 -0.0816614 0.0838042 0.215228 -0.0831352 
-0.0137147 -0.00534021 -0.00410428 -0.0145956 -0.00310198 -0.0111927 -0.014749 -0.000398837 -0.0186522 
-0.0130839 0.00346663 -0.0270395 -0.0100838 0.00853828 -0.0355601 -0.00433021 0.0160977 -0.0443559 
0.00355774 0.0261182 -0.0527725 0.0151214 0.0403771 -0.060536 0.029748 0.0587176 -0.0671263 
0.0488156 0.0829761 -0.0720151 0.0716794 0.112643 -0.0746408 0.0992024 0.148946 -0.0744889 
0.129334 0.190361 -0.0705468 -0.0117474 -0.00420125 -0.00932654 -0.012113 -0.00269255 -0.0166161 
-0.0115173 -0.000853826 -0.0242867 -0.00851837 0.00180994 -0.03291 -0.00376433 0.00547256 -0.0416049 
0.00460947 0.0111953 -0.0504475 0.015695 0.0190796 -0.0586574 0.0314506 0.0306867 -0.0657773 
0.0508101 0.0459248 -0.0711662 0.0753953 0.0664278 -0.0740449 0.103901 0.0917125 -0.0737887 
0.137219 0.122866 -0.0696848 0.172279 0.158791 -0.0607006 -0.0106772 -0.0034895 -0.0142824 
-0.0108525 -0.00269672 -0.0219601 -0.00987481 -0.00173322 -0.0300761 -0.00601432 -0.000342912 -0.0392881 
-2.62156e-05 0.00178604 -0.0485702 0.0103501 0.0054384 -0.0579969 0.0239555 0.0108738 -0.0665768 
0.0431221 0.01938 -0.0736982 0.066347 0.0309655 -0.0785291 0.0954564 0.0470161 -0.0800389 
0.128595 0.0670132 -0.0775641 0.166678 0.091854 -0.0701991 0.206029 0.120451 -0.0569556 
-0.0100418 -0.00298488 -0.0191092 -0.0101845 -0.00290144 -0.0272655 -0.0090028 -0.0028184 -0.0359406 
-0.00450982 -0.00273633 -0.0459122 0.00246031 -0.00220147 -0.0559817 0.0145395 -0.000732726 -0.066253 
0.0303362 0.00210207 -0.0754826 0.0525352 0.00728952 -0.0829182 0.0792048 0.0149557 -0.0875032 
0.112357 0.0262161 -0.0879548 0.149638 0.0404866 -0.0835831 0.191987 0.0584515 -0.0732921 
0.235321 0.0788299 -0.0561688 -0.0101097 -0.00237305 -0.0233927 -0.0105569 -0.00273312 -0.0321353 
-0.00956964 -0.00323911 -0.0415273 -0.00499623 -0.00410991 -0.0525428 0.00232916 -0.0048038 -0.0637657 
0.0153304 -0.00513283 -0.0754162 0.0324447 -0.00454186 -0.0858975 0.0566425 -0.00236644 -0.0943651 
0.085538 0.00160782 -0.0994197 0.121245 0.00819043 -0.0995253 0.160792 0.0166823 -0.0940327 
0.205051 0.0275175 -0.0816696 0.249498 0.0389853 -0.0619925 -0.010459 -0.00171835 -0.0274591 
-0.0113454 -0.00241559 -0.0368309 -0.010712 -0.00339404 -0.047003 -0.00627902 -0.00507553 -0.059176 
0.00115091 -0.00685203 -0.0716987 0.0147619 -0.0088245 -0.0849423 0.0328443 -0.0103346 -0.0969161 
0.0586274 -0.0110486 -0.106703 0.0892613 -0.0106753 -0.112513 0.126929 -0.00872539 -0.112558 
0.16799 -0.00603293 -0.106255 0.213217 -0.00242909 -0.092161 0.257628 -0.000148612 -0.0704605 
-0.0432172 -0.0384075 0.0362446 -0.0499635 -0.0349975 0.0290292 -0.0574781 -0.0314136 0.0213202 
-0.0669136 -0.027395 0.0123767 -0.0778682 -0.0229582 0.00284223 -0.091956 -0.017659 -0.00791112 
-0.108558 -0.0114563 -0.0196034 -0.12949 -0.00369762 -0.0329125 -0.15328 0.00577442 -0.0480964 
-0.181213 0.0177308 -0.0659987 -0.207451 0.0325103 -0.0875954 -0.231609 0.0507545 -0.113726 
-0.235065 0.0722352 -0.144676 -0.0397941 -0.0326997 0.0302564 -0.046148 -0.0290007 0.0232637 
-0.0531656 -0.0249427 0.0157944 -0.0618426 -0.0199872 0.00713362 -0.0718133 -0.0142201 -0.00208437 
-0.0844525 -0.00677899 -0.0124516 -0.0991945 0.0023423 -0.0236719 -0.117558 0.0143573 -0.0363614 
-0.138136 0.0295429 -0.0507067 -0.161925 0.0493259 -0.0674529 -0.183507 0.0743939 -0.0873729 
-0.20238 0.105948 -0.111188 -0.202191 0.143587 -0.138906 -0.0361259 -0.0271659 0.0245101 
-0.0418347 -0.0232589 0.0177229 -0.048033 -0.0188367 0.0104836 -0.055455 -0.0131262 0.00211411 
-0.0638123 -0.006264 -0.00675755 -0.0740985 0.00297389 -0.016665 -0.0858225 0.014558 -0.0272803 
-0.100023 0.0301828 -0.0391149 -0.115363 0.0501645 -0.0522312 -0.132355 0.0764637 -0.0672061 
-0.14625 0.10984 -0.084464 -0.156342 0.151902 -0.104524 -0.150062 0.201712 -0.12693 
-0.0324356 -0.0223479 0.0189519 -0.037351 -0.0184353 0.0123157 -0.0425334 -0.0139096 0.0052526 
-0.0483835 -0.0078508 -0.00287805 -0.0547324 -0.000413578 -0.0114448 -0.0621097 0.00986656 -0.0209111 
-0.0701679 0.0229278 -0.0309075 -0.0793986 0.0407786 -0.0418167 -0.0886901 0.0636775 -0.053578 
-0.0980697 0.0938961 -0.0665747 -0.103765 0.132002 -0.0809415 -0.104937 0.179789 -0.09699 
-0.0928265 0.235742 -0.114011 -0.0287273 -0.0181131 0.0135469 -0.0327285 -0.01436 0.00701753 
-0.0367349 -0.00994327 8.66712e-05 -0.0407549 -0.00386725 -0.00784793 -0.0447734 0.00372113 -0.0161436 
-0.0487889 0.0144287 -0.0251838 -0.0526534 0.0281638 -0.0345498 -0.0562577 0.0471129 -0.0444766 
-0.0588404 0.0713981 -0.0547801 -0.0599418 0.103421 -0.06563 -0.0570198 0.143341 -0.0769192 
-0.04916 0.192954 -0.0887479 -0.0314294 0.25014 -0.100325 -0.0254157 -0.0148467 0.00830954 
-0.0285405 -0.0115051 0.00177693 -0.0313962 -0.00751958 -0.00514465 -0.0335791 -0.00192421 -0.0130387 
-0.0352487 0.00519189 -0.0212267 -0.0358597 0.0154444 -0.030021 -0.0355222 0.0287628 -0.0389332 
-0.0335514 0.0473612 -0.0480482 -0.0296376 0.0712656 -0.0570716 -0.0229065 0.102864 -0.0659623 
-0.0119967 0.142028 -0.074463 0.00404125 0.190479 -0.0824851 0.0271471 0.246021 -0.08926 
-0.0223776 -0.0122481 0.0031877 -0.0246523 -0.0094918 -0.00342398 -0.0263746 -0.00615979 -0.0104211 
-0.0267157 -0.0013884 -0.0183818 -0.0260235 0.00482547 -0.0265749 -0.0232004 0.0140144 -0.0352475 
-0.0186554 0.026164 -0.0438276 -0.0111449 0.0434121 -0.0522486 -0.000880939 0.0657172 -0.0601144 
0.0133755 0.0953548 -0.0671753 0.0318391 0.131991 -0.0730867 0.0554662 0.177217 -0.0775874 
0.0837785 0.229133 -0.0800033 -0.020176 -0.01048 -0.00174758 -0.0218437 -0.00849116 -0.00860925 
-0.0226947 -0.00605685 -0.0158859 -0.0215039 -0.00250886 -0.0242 -0.0187825 0.00229839 -0.0327186 
-0.0129039 0.00970283 -0.0416592 -0.00457917 0.0198253 -0.0503076 0.00795839 0.0346287 -0.0584525 
0.0239794 0.0541082 -0.0655625 0.0450512 0.0803682 -0.071172 0.0704958 0.112998 -0.0748778 
0.101307 0.153445 -0.0762471 0.135423 0.200195 -0.0746758 -0.0184601 -0.00919419 -0.00657455 
-0.0196619 -0.00807852 -0.0137855 -0.0197939 -0.00668371 -0.0214601 -0.0172513 -0.00459103 -0.030294 
-0.0126934 -0.0014833 -0.0393242 -0.00397924 0.00371797 -0.0487593 0.00787678 0.011315 -0.0577082 
0.0251437 0.0230381 -0.0658196 0.0465773 0.0389802 -0.0724072 0.0740525 0.0610397 -0.0767851 
0.106145 0.0888045 -0.078508 0.143905 0.123571 -0.0769724 0.184171 0.164262 -0.0716297 
-0.0177978 -0.00824195 -0.0111082 -0.0189331 -0.0079656 -0.0188666 -0.018793 -0.00760507 -0.0271944 
-0.0154643 -0.00703411 -0.0369462 -0.00967681 -0.00575587 -0.0469575 0.00118165 -0.0030189 -0.0575038 
0.015838 0.00170387 -0.0673958 0.0370349 0.00984661 -0.0761608 0.0630017 0.0216594 -0.0828378 
0.0958848 0.0387937 -0.0864871 0.133589 0.0607651 -0.0866376 0.177211 0.0886731 -0.0824939 
0.222968 0.121326 -0.073689 -0.0176463 -0.00745146 -0.0154997 -0.0189088 -0.007998 -0.0239015 
-0.0187133 -0.00866922 -0.0330064 -0.0148727 -0.00965216 -0.043869 -0.00814986 -0.0102664 -0.0550889 
0.00451766 -0.0101204 -0.0670456 0.0216198 -0.00844102 -0.0781923 0.0463592 -0.00412108 -0.087944 
0.0764329 0.00327545 -0.0950071 0.114241 0.015133 -0.0981717 0.157055 0.0308609 -0.0969487 
0.206012 0.0513388 -0.0903409 0.25694 0.0749946 -0.0782238 -0.0182784 -0.00637358 -0.0193177 
-0.0200758 -0.00738982 -0.0284765 -0.0203055 -0.00870195 -0.0385368 -0.0166159 -0.0107538 -0.0508512 
-0.00969377 -0.0127591 -0.0637286 0.00389543 -0.0146683 -0.0777674 0.0224887 -0.0155361 -0.0909064 
0.0497 -0.0146104 -0.102496 0.0826261 -0.0113082 -0.110687 0.123839 -0.00456023 -0.113952 
0.169725 0.00488114 -0.111812 0.221346 0.0176281 -0.10304 0.273939 0.0314341 -0.0881939 
-0.0192239 -0.00518075 -0.0229063 -0.0217193 -0.00652541 -0.0328674 -0.0225665 -0.0083221 -0.0439546 
-0.019293 -0.0112489 -0.0578571 -0.0124661 -0.0144446 -0.0725717 0.00168989 -0.0181949 -0.0889613 
0.0213924 -0.0214113 -0.104388 0.0506472 -0.0237083 -0.118155 0.0859241 -0.0243717 -0.127772 
0.129933 -0.0226665 -0.13137 0.178076 -0.0195289 -0.128496 0.231293 -0.0146331 -0.117679 
0.284149 -0.0110179 -0.100338 -0.0492401 -0.0446542 0.0376669 -0.0567707 -0.0410345 0.0314603 
-0.0650519 -0.037235 0.0249129 -0.0752098 -0.0329862 0.0175132 -0.0869193 -0.0283076 0.00979491 
-0.101829 -0.0227427 0.00141961 -0.11943 -0.0162389 -0.00733591 -0.141666 -0.00811825 -0.0167462 
-0.16721 0.00181236 -0.0268498 -0.19755 0.0143674 -0.0379586 -0.22672 0.029982 -0.0505016 
-0.254454 0.0493517 -0.0648047 -0.260213 0.0723877 -0.0810556 -0.0456385 -0.0386038 0.0316663 
-0.0527586 -0.0347342 0.0256427 -0.0605235 -0.0304964 0.0192794 -0.0699001 -0.0253381 0.0120667 
-0.0805919 -0.0193433 0.00454064 -0.0939966 -0.0116234 -0.00363158 -0.10965 -0.00214774 -0.0121557 
-0.129176 0.0103517 -0.0212859 -0.151291 0.0262226 -0.0310196 -0.177158 0.0469824 -0.0416284 
-0.201213 0.0735048 -0.053441 -0.223043 0.1071 -0.0667311 -0.224618 0.147617 -0.0815447 
-0.0418264 -0.0327926 0.0260138 -0.0482785 -0.0287632 0.0201279 -0.0551966 -0.0242079 0.0139056 
-0.0632796 -0.0183377 0.00684203 -0.0722998 -0.0112798 -0.000520718 -0.0832531 -0.0017722 -0.00850047 
-0.0957358 0.0101921 -0.0167763 -0.110852 0.0263872 -0.025562 -0.127351 0.047223 -0.0347885 
-0.145852 0.0747878 -0.0446539 -0.161431 0.110066 -0.055318 -0.173423 0.154812 -0.066962 
-0.167986 0.208342 -0.0793969 -0.0380516 -0.0277379 0.0206475 -0.043693 -0.0237688 0.0148288 
-0.0495707 -0.0191791 0.00867344 -0.0560394 -0.0130378 0.00167619 -0.0629829 -0.00547777 -0.00560294 
-0.0709056 0.00500854 -0.0134634 -0.0795379 0.01841 -0.021546 -0.0893923 0.036832 -0.0300108 
-0.0994212 0.0606364 -0.0387184 -0.109703 0.0922452 -0.0477779 -0.116307 0.132438 -0.0572103 
-0.118399 0.183165 -0.0671006 -0.106333 0.243098 -0.0771354 -0.0343073 -0.0232995 0.0155146 
-0.0390215 -0.0195701 0.00970552 -0.0437011 -0.0151768 0.00355667 -0.0482942 -0.00912357 -0.00344171 
-0.0528308 -0.00151847 -0.0107022 -0.0572511 0.00928742 -0.0185031 -0.0614794 0.0232694 -0.0264371 
-0.0653771 0.0427213 -0.0346002 -0.0682416 0.0678676 -0.0427794 -0.0696077 0.101271 -0.0509819 
-0.0668312 0.143247 -0.0591153 -0.0589706 0.195744 -0.0671638 -0.0405874 0.256695 -0.0747812 
-0.0310571 -0.0198461 0.0106361 -0.0349076 -0.016632 0.00472419 -0.0384382 -0.0127889 -0.00154579 
-0.0411691 -0.00737321 -0.00871112 -0.0432951 -0.000408345 -0.0161285 -0.0441733 0.00975174 -0.0240658 
-0.0439882 0.0231332 -0.0320383 -0.041972 0.0420624 -0.0400716 -0.0378931 0.066678 -0.047871 
-0.0308232 0.0995388 -0.0553315 -0.0193746 0.140624 -0.0622947 -0.00255209 0.191802 -0.0686478 
0.021813 0.250849 -0.0740884 -0.0281477 -0.0170718 0.00593302 -0.0311782 -0.0145632 -0.000159211 
-0.0335937 -0.0115144 -0.0066384 -0.0344718 -0.00711518 -0.014085 -0.0341844 -0.00126314 -0.0217805 
-0.0314931 0.00758537 -0.0299893 -0.0268883 0.0195517 -0.0381294 -0.0189876 0.0368875 -0.0461512 
-0.00811769 0.059681 -0.0536733 0.00705773 0.0903881 -0.060471 0.0266897 0.128738 -0.0663531 
0.051791 0.176467 -0.0711117 0.0819066 0.231595 -0.0745416 -0.0262163 -0.0151096 0.00149826 
-0.0287254 -0.0135059 -0.0049398 -0.0303445 -0.0115241 -0.0118297 -0.0297388 -0.00859698 -0.0198494 
-0.0274196 -0.00443453 -0.0281496 -0.0215664 0.00227566 -0.0370283 -0.0129783 0.011857 -0.0457297 
0.000319729 0.026383 -0.0541253 0.0174224 0.0460335 -0.0616872 0.0400417 0.0731143 -0.0680401 
0.0673271 0.107252 -0.0729777 0.100339 0.150051 -0.0761783 0.136905 0.199854 -0.0775835 
-0.024853 -0.0136189 -0.00278074 -0.0270139 -0.0130361 -0.0096607 -0.0280217 -0.0122796 -0.0170784 
-0.0261465 -0.011089 -0.0258405 -0.0220171 -0.00895108 -0.034935 -0.0132384 -0.00485927 -0.0447151 
-0.000920638 0.00177392 -0.0542063 0.0174921 0.0127839 -0.0631996 0.0405033 0.0285242 -0.0709853 
0.0701822 0.0511236 -0.0770201 0.104814 0.0801927 -0.0810924 0.145523 0.117202 -0.0827561 
0.188946 0.160863 -0.0821287 -0.0247027 -0.0123771 -0.00668943 -0.027005 -0.012762 -0.0142046 
-0.0279462 -0.0132145 -0.0224091 -0.0254845 -0.013836 -0.0323372 -0.0202546 -0.0138822 -0.0427334 
-0.00931518 -0.0127418 -0.0540951 0.00597792 -0.00949281 -0.0650694 0.028769 -0.00261236 -0.0753765 
0.0569155 0.00854302 -0.0839437 0.0928273 0.0258971 -0.0899878 0.133912 0.04898 -0.0932912 
0.181345 0.0790939 -0.0932311 0.23104 0.114661 -0.0902985 -0.0251406 -0.011256 -0.0104186 
-0.0278216 -0.0125828 -0.0186627 -0.0289603 -0.0142363 -0.0277797 -0.0262434 -0.0167066 -0.0390791 
-0.020257 -0.0190143 -0.051023 -0.0075277 -0.0209868 -0.064296 0.010375 -0.0213334 -0.0770897 
0.0371875 -0.0188799 -0.0890579 0.0700943 -0.0126367 -0.0986767 0.111838 -0.000898353 -0.104889 
0.158943 0.0157535 -0.10747 0.212628 0.0384357 -0.105595 0.268312 0.0649624 -0.100226 
-0.026445 -0.00967526 -0.0135095 -0.0300077 -0.0114933 -0.0225906 -0.0319393 -0.0138455 -0.0328093 
-0.0297933 -0.0175331 -0.0458723 -0.0239435 -0.0214511 -0.0599009 -0.0104547 -0.0258445 -0.0759211 
0.00903587 -0.0291556 -0.0914479 0.0388629 -0.030603 -0.106125 0.0754162 -0.0288792 -0.117599 
0.121723 -0.0225574 -0.124429 0.172977 -0.0123755 -0.126347 0.230303 0.00254371 -0.122237 
0.288281 0.0190697 -0.114024 -0.028096 -0.00791073 -0.0163452 -0.0327416 -0.0100397 -0.0263064 
-0.0357042 -0.0128896 -0.0377025 -0.0344596 -0.017542 -0.0526859 -0.0291036 -0.0228098 -0.0690141 
-0.0152676 -0.0293472 -0.0881159 0.00540214 -0.0353704 -0.106741 0.0378411 -0.0405081 -0.124546 
0.0775953 -0.0431468 -0.138197 0.127957 -0.0421617 -0.145824 0.182611 -0.0384655 -0.147102 
0.242534 -0.0314418 -0.140589 0.301329 -0.0253005 -0.12937 -0.0545291 -0.0509909 0.0393462 
-0.0626318 -0.0471794 0.0341609 -0.0714364 -0.0431942 0.0287983 -0.0819961 -0.0387746 0.0229923 
-0.0940588 -0.0339334 0.0171789 -0.109221 -0.0282229 0.0113505 -0.12706 -0.0215753 0.00580707 
-0.149507 -0.0133138 0.000754574 -0.175333 -0.00322593 -0.00352273 -0.206057 0.00951037 -0.00667597 
-0.235745 0.0253642 -0.0082722 -0.264162 0.0450443 -0.00795755 -0.270232 0.0685135 -0.00537174 
-0.0507712 -0.0445102 0.0334005 -0.0584666 -0.0405136 0.0283683 -0.06676 -0.036156 0.0231428 
-0.0765483 -0.0308955 0.0174341 -0.0876007 -0.0248041 0.0116907 -0.10126 -0.0169989 0.0058761 
-0.117142 -0.00742656 0.000306178 -0.136854 0.00518932 -0.00484227 -0.159199 0.0212291 -0.0092871 
-0.185364 0.0422334 -0.0127117 -0.209808 0.0691379 -0.0147355 -0.232139 0.103284 -0.0150403 
-0.233861 0.144613 -0.0133658 -0.0468597 -0.0383393 0.0278888 -0.053892 -0.0342518 0.0229375 
-0.0613443 -0.0296482 0.0177735 -0.0698465 -0.0237543 0.0120781 -0.0792286 -0.0166764 0.00631554 
-0.0904253 -0.00715684 0.000414568 -0.103108 0.00484407 -0.00529261 -0.118349 0.0211183 -0.010666 
-0.134976 0.0421182 -0.0154373 -0.153613 0.0699703 -0.0193355 -0.169344 0.105731 -0.0220754 
-0.181509 0.151199 -0.0233939 -0.175921 0.205778 -0.023197 -0.0430584 -0.0329738 0.0227569 
-0.0492957 -0.0290273 0.0178026 -0.0557226 -0.0244767 0.012609 -0.0626233 -0.0184158 0.00681671 
-0.0699308 -0.0109419 0.000919226 -0.0780774 -0.000553646 -0.00519527 -0.0868655 0.0127864 -0.0111654 
-0.0967586 0.03121 -0.0168867 -0.106788 0.0551318 -0.0220956 -0.117015 0.0870259 -0.0265616 
-0.123527 0.127735 -0.0300829 -0.12548 0.179264 -0.032445 -0.113009 0.240331 -0.0336769 
-0.0393467 -0.0282646 0.0179344 -0.0446818 -0.024648 0.012909 -0.0499332 -0.020394 0.00761121 
-0.0549753 -0.0145462 0.0016324 -0.0598788 -0.00715725 -0.00449429 -0.0644964 0.00341044 -0.0109259 
-0.0688245 0.0172019 -0.0172613 -0.0726541 0.0365455 -0.0234308 -0.0753688 0.0617283 -0.0291681 
-0.0764671 0.0953782 -0.0342785 -0.0733483 0.137852 -0.0386345 -0.0650539 0.191155 -0.0420646 
-0.0460452 0.253201 -0.0446853 -0.036231 -0.0245646 0.0134687 -0.0407561 -0.0215732 0.00826307 
-0.0449085 -0.0179971 0.00273513 -0.0481293 -0.012959 -0.00359862 -0.0506411 -0.00639595 -0.0101341 
-0.0516904 0.00331241 -0.0170856 -0.0515373 0.0163006 -0.0239735 -0.0493135 0.0349372 -0.0307515 
-0.0448998 0.0594498 -0.0371164 -0.0373109 0.0924825 -0.0428824 -0.0252527 0.134034 -0.0479787 