# vtk DataFile Version 2.0
vtk output
ASCII
DATASET RECTILINEAR_GRID
DIMENSIONS 13 13 13
X_COORDINATES 13 float
0 0.208333 0.416667 0.625 0.833333 1.04167 1.25 1.45833 1.66667 
1.875 2.08333 2.29167 2.5 
Y_COORDINATES 13 float
-10 -9.79167 -9.58333 -9.375 -9.16667 -8.95833 -8.75 -8.54167 -8.33333 
-8.125 -7.91667 -7.70833 -7.5 
Z_COORDINATES 13 float
5 5.20833 5.41667 5.625 5.83333 6.04167 6.25 6.45833 6.66667 
6.875 7.08333 7.29167 7.5 
POINT_DATA 2197
VECTORS grad float
-0.00601448 0.0922866 -0.0545314 0.00341354 0.0950092 -0.0648893 0.0131397 0.097272 -0.07108 
0.0227702 0.0994846 -0.0769401 0.0309354 0.100926 -0.0777299 0.0387713 0.10227 -0.0780828 
0.0437103 0.102746 -0.0745916 0.0481171 0.103088 -0.0708161 0.0493308 0.102631 -0.0653346 
0.0499813 0.102025 -0.0598425 0.0481292 0.100759 -0.0543034 0.0458446 0.0993466 -0.0489774 
0.0420659 0.0974307 -0.0443876 -0.00339897 0.100144 -0.0505547 0.00590432 0.103178 -0.0607702 
0.0153011 0.105595 -0.0669386 0.0245946 0.107949 -0.0727859 0.0323038 0.109337 -0.0737106 
0.0396807 0.110606 -0.0742096 0.044135 0.110833 -0.0709631 0.0480628 0.110907 -0.0674363 
0.0488319 0.110065 -0.0622277 0.0490512 0.109062 -0.0570042 0.0468268 0.107346 -0.051715 
0.0441881 0.105483 -0.0466308 0.0401175 0.103111 -0.042255 -0.000736224 0.108279 -0.0464688 
0.00843232 0.111637 -0.0565194 0.0174848 0.114217 -0.0626526 0.026426 0.116721 -0.0684751 
0.0336627 0.118058 -0.0695353 0.0405645 0.119256 -0.0701819 0.0445206 0.119231 -0.0671907 
0.0479567 0.119033 -0.0639237 0.048273 0.117796 -0.0590025 0.0480537 0.116385 -0.0540622 
0.0454543 0.114204 -0.0490367 0.0424594 0.111874 -0.0442076 0.0380982 0.109029 -0.0400572 
0.00303622 0.12296 -0.0398179 0.0118346 0.12692 -0.0491727 0.0201889 0.129869 -0.0549704 
0.0284221 0.132722 -0.060487 0.0347994 0.134094 -0.0616943 0.0408464 0.13529 -0.0625247 
0.043987 0.13494 -0.0600377 0.0466319 0.134374 -0.0572928 0.0463028 0.132509 -0.0530008 
0.0454753 0.130435 -0.0486825 0.0424325 0.127432 -0.0442475 0.0390351 0.124266 -0.0399871 
0.0344121 0.120531 -0.03633 0.00689887 0.137432 -0.0330885 0.0153178 0.141996 -0.0417183 
0.0229572 0.145333 -0.0471582 0.0304653 0.148552 -0.0523472 0.0359595 0.149988 -0.0536893 
0.0411275 0.151211 -0.0546919 0.0434255 0.150568 -0.0527077 0.0452526 0.149665 -0.0504848 
0.044254 0.147196 -0.0468299 0.0427956 0.14448 -0.0431427 0.0392941 0.140667 -0.039312 
0.0354811 0.136672 -0.0356345 0.030592 0.132049 -0.0324862 0.0117763 0.149561 -0.025477 
0.0197108 0.154755 -0.0330522 0.0264481 0.158665 -0.0378837 0.0330388 0.162448 -0.0425011 
0.0373825 0.164278 -0.0438379 0.0414004 0.165863 -0.0448854 0.0425513 0.165288 -0.0433869 
0.0432607 0.164395 -0.0416841 0.0413209 0.161589 -0.0387562 0.0389779 0.158472 -0.035802 
0.0348429 0.153969 -0.0327311 0.0304679 0.149241 -0.0297964 0.0252632 0.143737 -0.0273324 
0.016814 0.161312 -0.0179009 0.024271 0.16716 -0.0243973 0.0301021 0.171693 -0.0285888 
0.0357702 0.176088 -0.0326031 0.0389371 0.178376 -0.0338985 0.0417762 0.180384 -0.0349554 
0.0417311 0.179936 -0.0339128 0.0412729 0.179106 -0.0327028 0.0383353 0.175994 -0.0304893 
0.0350534 0.172499 -0.0282589 0.0302416 0.167306 -0.0259535 0.0252669 0.161841 -0.0237701 
0.019729 0.155438 -0.0220077 0.0230007 0.170353 -0.0105786 0.0300296 0.177027 -0.0158217 
0.0349257 0.182529 -0.0191484 0.0396323 0.18789 -0.0223324 0.0414343 0.191093 -0.0233277 
0.0428901 0.193979 -0.0241398 0.0412987 0.194065 -0.0233398 0.0393145 0.193681 -0.022427 
0.0349733 0.190475 -0.0208373 0.0303642 0.186777 -0.0192645 0.0245642 0.18089 -0.0177666 
0.0187199 0.174657 -0.0163947 0.0127223 0.16723 -0.0154582 0.0294947 0.178882 -0.00334792 
0.0361386 0.186438 -0.00731059 0.0401202 0.193007 -0.00971866 0.0438826 0.199433 -0.0120174 
0.0442839 0.203672 -0.0126401 0.0443138 0.20755 -0.0131359 0.0410766 0.208262 -0.0125153 
0.0374633 0.208403 -0.0118416 0.0315934 0.205122 -0.0108492 0.0255375 0.201226 -0.00991483 
0.0186554 0.194596 -0.00923786 0.0118613 0.187543 -0.00869617 0.00537146 0.179024 -0.00862177 
0.0375639 0.184782 0.00341309 0.0440435 0.193509 0.000869808 0.0472162 0.201648 -0.000343897 
0.0501223 0.209649 -0.00147585 0.0489385 0.215536 -0.00135438 0.0473252 0.221005 -0.00116724 
0.0419321 0.222807 -0.000402161 0.0361608 0.223885 0.000329572 0.0281209 0.220619 0.000861243 
0.0200064 0.216554 0.00125597 0.0115604 0.208934 0.00104204 0.00340569 0.200789 0.000657779 
-0.00374256 0.190831 -0.000314887 0.0461778 0.189969 0.0101451 0.052605 0.19993 0.00907403 
0.0550421 0.209779 0.00916651 0.0571572 0.219499 0.0093155 0.0543355 0.227231 0.010331 
0.0510101 0.234484 0.0113479 0.0432524 0.237526 0.0123761 0.035106 0.239668 0.0132705 
0.0246279 0.236407 0.013362 0.0142029 0.232139 0.0132205 0.00401359 0.223389 0.012043 
-0.00564786 0.214014 0.010653 -0.0134858 0.202475 0.00852887 0.056916 0.192372 0.0167642 
0.063728 0.203814 0.0173712 0.0657147 0.215921 0.0192059 0.0672941 0.22792 0.0210811 
0.0626277 0.238269 0.0235753 0.0573216 0.248059 0.0259941 0.0463854 0.252926 0.0277483 
0.035017 0.256626 0.0292136 0.0210548 0.253331 0.0289452 0.00733691 0.248726 0.0282807 
-0.00529544 0.238304 0.0258562 -0.0170336 0.227151 0.0231493 -0.025683 0.21348 0.0194665 
0.0684324 0.193601 0.0234711 0.0758543 0.206491 0.0258574 0.0775851 0.220925 0.0296627 
0.0788088 0.235282 0.0334985 0.0722556 0.248462 0.0378012 0.06489 0.261001 0.0419441 
0.0503762 0.267898 0.04468 0.0353671 0.273328 0.0469328 0.017386 0.269957 0.046287 
-0.000116213 0.264944 0.0450403 -0.0154901 0.252633 0.0411229 -0.0295296 0.239509 0.0368485 
-0.0389598 0.223571 0.031341 -0.0160815 0.0962155 -0.07539 -0.00499844 0.0991367 -0.0871821 
0.00744658 0.101451 -0.0935915 0.0197954 0.103703 -0.0995625 0.0306696 0.105003 -0.0988129 
0.0411114 0.106191 -0.0975222 0.047749 0.106393 -0.0914706 0.05368 0.106458 -0.0851465 
0.0553713 0.105698 -0.0771879 0.0563497 0.104795 -0.0693338 0.0541593 0.10326 -0.0619441 
0.0514628 0.101589 -0.0549095 0.047018 0.0994504 -0.0491013 -0.0132865 0.104881 -0.0713002 
-0.00238295 0.108261 -0.0828103 0.00964508 0.110808 -0.0891327 0.0215695 0.113275 -0.0950333 
0.0319047 0.114506 -0.0944686 0.0418089 0.115599 -0.09338 0.0479208 0.115469 -0.0876817 
0.0533377 0.115179 -0.0817129 0.0545855 0.113926 -0.0741215 0.0551371 0.112522 -0.0666229 
0.0525951 0.110438 -0.0595368 0.0495653 0.108222 -0.0527898 0.0448507 0.10555 -0.0472146 
-0.0104225 0.113836 -0.0670542 0.000287842 0.117691 -0.078255 0.0118772 0.120483 -0.0844766 
0.0233553 0.123175 -0.0902944 0.0331284 0.124343 -0.08992 0.0424726 0.125345 -0.0890402 
0.0480414 0.124879 -0.0837136 0.0529283 0.124229 -0.0781191 0.0537236 0.122474 -0.0709165 
0.0538411 0.120555 -0.0637944 0.0509457 0.117906 -0.0570302 0.0475819 0.115127 -0.0505883 
0.0426005 0.111902 -0.0452598 -0.00593786 0.129625 -0.0591389 0.00425774 0.134314 -0.0693883 
0.014898 0.137617 -0.075187 0.0254176 0.140793 -0.0806272 0.0340861 0.142015 -0.0805695 
0.0423415 0.143022 -0.0800565 0.046961 0.142148 -0.0755369 0.0509401 0.141039 -0.0707621 
0.0510762 0.13852 -0.064455 0.0505832 0.135799 -0.0582025 0.0472944 0.132184 -0.0521931 
0.0435809 0.128428 -0.0464643 0.0384007 0.124186 -0.0417048 -0.00133691 0.145133 -0.0511215 
0.00833206 0.150648 -0.0603956 0.0180025 0.154479 -0.065754 0.0275422 0.158154 -0.0707995 
0.0350771 0.159466 -0.0710486 0.0422143 0.160517 -0.0708935 0.0458525 0.159278 -0.0671811 
0.0488923 0.157753 -0.0632274 0.0483412 0.154504 -0.0578256 0.0472119 0.151014 -0.0524536 
0.0435123 0.146452 -0.0472141 0.0394348 0.141733 -0.0422136 0.0340514 0.136478 -0.0380391 
0.00457193 0.157476 -0.0419553 0.0135811 0.163744 -0.0499858 0.0220471 0.168267 -0.0547063 
0.0303667 0.172625 -0.0591651 0.0364425 0.174437 -0.0596103 0.0421325 0.175952 -0.0597138 
0.0444274 0.174847 -0.0568105 0.0461728 0.173388 -0.0536952 0.0446208 0.169804 -0.0493083 
0.0425633 0.165905 -0.0449375 0.0382592 0.160598 -0.0406379 0.0336563 0.155087 -0.036538 
0.0280211 0.148867 -0.0331282 0.01066 0.169381 -0.0328665 0.0190199 0.176418 -0.0396472 
0.0262818 0.181685 -0.04371 0.0333802 0.186776 -0.047561 0.0379717 0.189163 -0.0481659 
0.0421863 0.191214 -0.0484916 0.0430839 0.190312 -0.0463599 0.0434792 0.188986 -0.044048 
0.0408607 0.185107 -0.0406547 0.0378121 0.18083 -0.0372674 0.0328523 0.174783 -0.0339064 
0.0276795 0.168477 -0.0307088 0.0217708 0.161276 -0.0280754 0.018033 0.178145 -0.0243332 
0.0258185 0.186075 -0.0298187 0.0318795 0.192445 -0.0330806 0.0377485 0.198638 -0.0361737 
0.0406754 0.202127 -0.0366776 0.0432129 0.20524 -0.0369641 0.0423255 0.205042 -0.0353357 
0.0409712 0.204317 -0.0335755 0.0368162 0.200425 -0.0310239 0.0323255 0.196005 -0.0284942 
0.0263429 0.189243 -0.0260626 0.0202807 0.182133 -0.0237787 0.0139441 0.173826 -0.0220054 
0.0257349 0.186395 -0.0159887 0.0330018 0.195278 -0.0201747 0.0378961 0.202861 -0.0225977 
0.042566 0.21027 -0.0248928 0.0437966 0.214999 -0.0252262 0.0446177 0.219308 -0.0254035 
0.0418352 0.21992 -0.0242069 0.0386165 0.219889 -0.0229311 0.0327807 0.216001 -0.0211801 
0.0267097 0.211443 -0.0194745 0.019594 0.203904 -0.0179702 0.0125484 0.195925 -0.0166035 
0.00574458 0.186428 -0.0157122 0.0351223 0.192006 -0.00861266 0.0421567 0.20215 -0.011476 
0.0460596 0.211516 -0.0128657 0.0496851 0.220718 -0.0141584 0.0490582 0.227397 -0.013964 
0.0479605 0.233594 -0.0136739 0.0427195 0.235554 -0.0125417 0.0370477 0.236693 -0.0114056 
0.0287909 0.232903 -0.0102458 0.0204319 0.228223 -0.00919118 0.0116185 0.219595 -0.00860429 
0.00310637 0.210409 -0.00817235 -0.00436543 0.199298 -0.00827569 0.0451046 0.196952 -0.00139416 
0.0520463 0.208435 -0.00290467 0.0550577 0.219758 -0.00317045 0.0577297 0.23093 -0.00336736 
0.055196 0.239806 -0.00250804 0.0521107 0.248133 -0.00161526 0.0441706 0.251627 -0.000428049 
0.035794 0.254092 0.000675919 0.0247993 0.250374 0.00128041 0.0138546 0.24552 0.00170437 
0.00313214 0.235612 0.0013259 -0.00701834 0.22503 0.000768256 -0.0151929 0.212116 -0.000408401 
0.0574065 0.199299 0.00520978 0.064801 0.212427 0.0051696 0.0673111 0.226384 0.00638102 
0.0693838 0.240223 0.00764434 0.0647513 0.252261 0.00970334 0.05941 0.263657 0.0117266 
0.0478319 0.26941 0.0134348 0.0357695 0.273808 0.014926 0.0208005 0.270072 0.0151148 
0.00610936 0.264832 0.0149878 -0.00734682 0.252903 0.013457 -0.0198056 0.240184 0.0116958 
-0.0288187 0.224734 0.00913885 0.0705954 0.200502 0.0117663 0.0787249 0.215256 0.013276 
0.0809902 0.231966 0.0161642 0.0827027 0.248604 0.0190937 0.0759384 0.264119 0.0226547 
0.0682616 0.2789 0.0261048 0.0525557 0.287212 0.0285786 0.0362919 0.293789 0.0306663 
0.0166812 0.289962 0.0304375 -0.00236797 0.284214 0.0297194 -0.0189211 0.269931 0.0268265 
-0.0339585 0.254767 0.0236484 -0.0437593 0.236558 0.019485 -0.0271726 0.100205 -0.0978309 
-0.0140793 0.103433 -0.111786 0.00174584 0.105848 -0.118757 0.0174714 0.108183 -0.125143 
0.0316695 0.109306 -0.122563 0.0452942 0.110298 -0.119307 0.0538715 0.110143 -0.110101 
0.0615156 0.109847 -0.100651 0.0635601 0.108705 -0.0897389 0.0647139 0.107434 -0.0790903 
0.0619095 0.105581 -0.0696113 0.0585301 0.103611 -0.0606663 0.0531648 0.101233 -0.0535661 
-0.024103 0.109945 -0.0934232 -0.0112605 0.113802 -0.106928 0.00402292 0.116533 -0.113741 
0.0191997 0.119158 -0.119994 0.0327421 0.120172 -0.117685 0.0457189 0.12102 -0.114724 
0.0537186 0.120407 -0.106031 0.0608056 0.119627 -0.0970911 0.0624168 0.117848 -0.0866762 
0.063159 0.115932 -0.0765015 0.0600391 0.113407 -0.0673947 0.0563624 0.110774 -0.0587954 
0.0507626 0.107771 -0.0519498 -0.0209397 0.119991 -0.0888049 -0.0083662 0.124496 -0.101825 
0.0063451 0.127556 -0.108463 0.0209428 0.130483 -0.11457 0.0337977 0.131395 -0.112543 
0.0460961 0.132104 -0.10989 0.0534965 0.131029 -0.101739 0.0600067 0.129762 -0.0933393 
0.0611759 0.127332 -0.0834517 0.0614994 0.124758 -0.0737802 0.0580645 0.121541 -0.0650693 
0.0540921 0.118227 -0.0568379 0.0482632 0.114576 -0.0502632 -0.0155724 0.137236 -0.0792376 
-0.00369813 0.142819 -0.0909543 0.00972689 0.146523 -0.0970449 0.0230295 0.150058 -0.102673 
0.0344554 0.151006 -0.1012 0.0453575 0.151692 -0.0991703 0.0516508 0.150075 -0.0922407 
0.0571195 0.148207 -0.0850663 0.0576406 0.14483 -0.0764232 0.0573793 0.141273 -0.0679434 
0.0536411 0.136915 -0.0601893 0.0494106 0.132455 -0.0528469 0.0434793 0.127644 -0.0469265 
-0.0100662 0.1541 -0.069555 0.00109411 0.16074 -0.0799506 0.0132079 0.1651 -0.085482 
0.02519 0.169256 -0.090618 0.0351529 0.170286 -0.0896917 0.0446247 0.170996 -0.0882775 
0.0497738 0.168896 -0.0825704 0.0541648 0.166487 -0.0766231 0.0540063 0.162214 -0.0692351 
0.0531313 0.157721 -0.0619586 0.0490715 0.15225 -0.0551773 0.0445677 0.146668 -0.0487397 
0.0385301 0.140707 -0.0434894 -0.00299885 0.16667 -0.0585765 0.00728333 0.174141 -0.0674533 
0.0178052 0.179281 -0.0722873 0.0281799 0.184206 -0.0767963 0.0362993 0.18583 -0.0763242 
0.0439563 0.187095 -0.0754431 0.0475446 0.185196 -0.0709636 0.0504502 0.18291 -0.066265 
0.0492601 0.178311 -0.0602518 0.0474456 0.173406 -0.054309 0.0428567 0.167145 -0.0486792 
0.037909 0.160719 -0.0433251 0.0317223 0.15372 -0.0389236 0.0042534 0.178713 -0.0477484 
0.0136725 0.187023 -0.0551235 0.0226107 0.192995 -0.0592545 0.0313848 0.198741 -0.0631292 
0.0376403 0.201044 -0.0630727 0.0434585 0.202947 -0.0626851 0.0454286 0.201333 -0.0593836 
0.0467892 0.199253 -0.0558862 0.0444932 0.194379 -0.0512138 0.0416679 0.189107 -0.0465749 
0.0364904 0.182067 -0.042085 0.031047 0.1748 -0.0378063 0.0246851 0.166749 -0.0342571 
0.0128308 0.186988 -0.0379985 0.0214947 0.196196 -0.0439939 0.0289096 0.20336 -0.0473825 
0.0361305 0.210304 -0.0505688 0.0403762 0.213887 -0.0506521 0.0441827 0.217031 -0.050474 
0.0441242 0.216311 -0.0479948 0.0435121 0.215012 -0.045359 0.0395784 0.210238 -0.0417835 
0.0352301 0.20492 -0.0382342 0.0290387 0.197178 -0.0348016 0.022728 0.189107 -0.0315401 
0.0160048 0.1799 -0.0288696 0.0217399 0.194732 -0.0285703 0.0297184 0.204903 -0.033212 
0.035662 0.213382 -0.0358426 0.0413774 0.22165 -0.0383219 0.0435918 0.226669 -0.0384806 
0.0453554 0.231205 -0.0384456 0.0431521 0.231497 -0.0367068 0.0404445 0.231083 -0.0348538 
0.0347115 0.226429 -0.0323153 0.028685 0.221066 -0.0298023 0.0213536 0.212551 -0.0274031 
0.0140672 0.2036 -0.0251406 0.00693576 0.193141 -0.0233506 0.0323493 0.199758 -0.0207916 
0.0399996 0.211222 -0.0242127 0.0447393 0.221649 -0.0260052 0.0491932 0.231881 -0.0276821 
0.049266 0.239133 -0.0275855 0.0488268 0.245839 -0.027354 0.0438829 0.247751 -0.0259356 
0.0384509 0.248755 -0.0244615 0.0300901 0.244317 -0.0226528 0.0215903 0.238921 -0.020903 
0.0124725 0.229268 -0.0194147 0.00365502 0.219044 -0.0180584 -0.00412503 0.206847 -0.0171577 
0.0435833 0.204167 -0.0133336 0.0510729 0.217018 -0.0155385 0.054738 0.2296 -0.0164387 
0.0580497 0.242011 -0.0172555 0.0559408 0.251789 -0.0167946 0.0532357 0.260953 -0.0162572 
0.045285 0.264704 -0.0150471 0.0368487 0.26731 -0.0138477 0.0254994 0.263049 -0.0127127 
0.0141876 0.257544 -0.0116815 0.00304235 0.246514 -0.0111119 -0.00750187 0.234778 -0.0106759 
-0.0159697 0.220609 -0.010701 0.0572535 0.206166 -0.00712641 0.065235 0.220778 -0.00813199 
0.068331 0.236324 -0.00792821 0.0709652 0.251742 -0.00766034 0.0665183 0.265198 -0.00640957 
0.061301 0.277939 -0.00513962 0.0493046 0.284385 -0.00370082 0.0367729 0.289305 -0.00237031 
0.0210287 0.285073 -0.0016896 0.00558408 0.279166 -0.00120358 -0.00852889 0.265819 -0.00158285 
-0.0215633 0.25164 -0.00212237 -0.0308716 0.234588 -0.00321547 0.071901 0.207069 -0.00114021 
0.0807112 0.223442 -0.000908206 0.0835582 0.242126 0.00053552 0.0858144 0.260742 0.00202964 
0.0790115 0.278303 0.00429652 0.0712074 0.295047 0.00652242 0.0545916 0.304592 0.00838781 
0.0373589 0.312157 0.0100224 0.0164252 0.307841 0.0102726 -0.00387859 0.301355 0.0102095 
-0.0213829 0.285223 0.00875405 -0.0372198 0.268168 0.00710844 -0.0472964 0.24792 0.00480588 
-0.0410282 0.104813 -0.121074 -0.0253397 0.108588 -0.138345 -0.0046597 0.111203 -0.14648 
0.01591 0.113707 -0.153806 0.0347883 0.114507 -0.14874 0.0528489 0.115148 -0.142827 
0.0637134 0.114385 -0.129462 0.0733046 0.113486 -0.115952 0.075255 0.111772 -0.10158 
0.0761082 0.109957 -0.0877126 0.0720847 0.107693 -0.0760895 0.0674549 0.105343 -0.06522 
0.0607309 0.102699 -0.0569536 -0.037485 0.116062 -0.116016 -0.0221479 0.120714 -0.132559 
-0.00223351 0.123751 -0.14041 0.0175647 0.12664 -0.147497 0.0355809 0.127236 -0.142876 
0.0528019 0.127625 -0.137443 0.0630249 0.126186 -0.124871 0.0720114 0.124584 -0.11214 
0.0735787 0.122009 -0.0984576 0.0740755 0.119337 -0.0852378 0.0698145 0.116231 -0.0740741 
0.0649618 0.113064 -0.0636231 0.058065 0.109683 -0.0556343 -0.0338134 0.127634 -0.110682 
-0.0188524 0.133181 -0.12645 0.000251955 0.136656 -0.133997 0.0192342 0.139943 -0.140827 
0.0363435 0.140343 -0.136671 0.0526818 0.140486 -0.131742 0.0622364 0.138366 -0.120007 
0.0705943 0.136056 -0.108098 0.0717717 0.132607 -0.0951482 0.0719076 0.129062 -0.0826159 
0.0674142 0.125094 -0.0719416 0.0623446 0.121087 -0.0619368 0.0552844 0.116945 -0.0542443 
-0.027121 0.146767 -0.0988726 -0.0131205 0.153681 -0.112753 0.00412985 0.157938 -0.119516 
0.0212515 0.161956 -0.125669 0.0363992 0.16232 -0.122468 0.0508436 0.162354 -0.118586 
0.0590991 0.159471 -0.108724 0.0662652 0.156335 -0.0986665 0.0668948 0.151681 -0.0874401 
0.0665626 0.146903 -0.076535 0.0619562 0.141574 -0.0670581 0.056812 0.136215 -0.058148 
0.0498102 0.130753 -0.0511957 -0.0202752 0.165363 -0.0869604 -0.0072529 0.173598 -0.0989483 
0.0081169 0.178637 -0.104925 0.0233508 0.183392 -0.110398 0.0365006 0.183781 -0.108138 
0.0490141 0.183768 -0.105294 0.0559288 0.180211 -0.0972971 0.0618623 0.176335 -0.0890867 
0.0619087 0.170553 -0.079592 0.0610761 0.164612 -0.0703233 0.0563369 0.157968 -0.0620589 
0.0511022 0.151297 -0.0542586 0.0441559 0.144533 -0.0480616 -0.0117034 0.177906 -0.0738943 
0.000142134 0.186951 -0.083941 0.0133319 0.192794 -0.0890937 0.0263719 0.198346 -0.0938421 
0.0371156 0.199437 -0.092392 0.0472837 0.200086 -0.0904569 0.052388 0.196846 -0.0842552 
0.0566295 0.193204 -0.0778431 0.0556949 0.187147 -0.0701685 0.0539965 0.180835 -0.0626396 
0.0489031 0.173387 -0.0557585 0.0433989 0.165849 -0.0492384 0.0364748 0.158 -0.0439652 
-0.00297027 0.1898 -0.0610962 0.00772042 0.19965 -0.069254 0.0187567 0.206344 -0.0735976 
0.0296275 0.212744 -0.0776331 0.03796 0.214629 -0.0769444 0.0457724 0.216034 -0.0758687 
0.0490094 0.213214 -0.0713882 0.0514982 0.209902 -0.0667037 0.0494983 0.203641 -0.0607949 
0.0468524 0.197019 -0.0549569 0.0413353 0.188791 -0.0494339 0.0355001 0.180403 -0.044173 
0.0285663 0.171463 -0.0398175 0.00691921 0.197046 -0.0502183 0.0166123 0.207663 -0.0568624 
0.0256856 0.215548 -0.0605045 0.0345638 0.223154 -0.0639071 0.0404487 0.226499 -0.0636373 
0.0458312 0.229332 -0.0630598 0.0467934 0.227663 -0.0597745 0.0470939 0.22538 -0.056311 
0.0434247 0.219417 -0.0517789 0.0392466 0.212927 -0.047281 0.032806 0.204091 -0.0429351 
0.0262008 0.194975 -0.0387833 0.0190272 0.184896 -0.0353021 0.0171047 0.203744 -0.0398262 
0.0258853 0.215197 -0.0450218 0.0330749 0.224403 -0.0479748 0.0400347 0.233349 -0.0507524 
0.0434722 0.238315 -0.0508409 0.0464135 0.242733 -0.0506972 0.044987 0.242334 -0.0485094 
0.0429767 0.241186 -0.0461715 0.0374636 0.235541 -0.0429319 0.0315844 0.229184 -0.0396961 
0.0240786 0.219665 -0.0364772 0.0165807 0.209744 -0.0333908 0.00911037 0.198428 -0.030762 
0.0288073 0.20763 -0.031924 0.0371113 0.220276 -0.0360053 0.042823 0.231475 -0.0383329 
0.0482456 0.242442 -0.0405263 0.0492371 0.249851 -0.0406623 0.0496786 0.256656 -0.0406221 
0.0452802 0.258149 -0.0390322 0.0403312 0.25868 -0.0373296 0.0320783 0.253446 -0.034951 
0.0236336 0.24723 -0.0325779 0.0143364 0.236652 -0.0302291 0.00531703 0.225518 -0.0279835 
-0.00274222 0.212465 -0.026095 0.0411161 0.210958 -0.0245214 0.0491334 0.224909 -0.0275348 
0.0535268 0.238328 -0.0292289 0.0575609 0.251548 -0.0308262 0.0560852 0.261714 -0.0309383 
0.0539801 0.271211 -0.0309275 0.0463373 0.274821 -0.0298359 0.0381612 0.27722 -0.0286721 
0.0267848 0.272344 -0.0270747 0.0154132 0.266177 -0.0254915 0.00406318 0.25427 -0.0239706 
-0.0066909 0.241658 -0.0225299 -0.0153863 0.226613 -0.0213658 0.0557896 0.212107 -0.0190668 
0.0642606 0.227802 -0.0211938 0.0679583 0.244327 -0.022223 0.0711831 0.260706 -0.0231775 
0.0671578 0.274851 -0.0229872 0.0623238 0.288226 -0.0227161 0.050374 0.29484 -0.0217353 
0.037846 0.299835 -0.0207336 0.021849 0.295114 -0.0196064 0.00614127 0.288637 -0.0185288 
-0.00828083 0.274354 -0.0176718 -0.0216015 0.259228 -0.0168949 -0.0311171 0.241193 -0.0163944 
0.0714608 0.21223 -0.0140188 0.0807571 0.229687 -0.0152747 0.0841217 0.249523 -0.0155911 
0.0868776 0.269283 -0.015851 0.0803029 0.287886 -0.015245 0.0726781 0.305618 -0.0145995 
0.0558118 0.315684 -0.0136074 0.0382872 0.32364 -0.012655 0.0168129 0.318935 -0.0119415 
-0.00401429 0.311936 -0.0113254 -0.021965 0.294739 -0.0111429 -0.0381887 0.2766 -0.0110436 
-0.0484462 0.255213 -0.0112319 -0.0571364 0.109924 -0.14497 -0.038376 0.114444 -0.166497 
-0.0116395 0.11734 -0.176286 0.01497 0.120081 -0.184981 0.0396334 0.120441 -0.176894 
0.063151 0.120603 -0.167761 0.0765859 0.119028 -0.149418 0.0883147 0.117329 -0.131089 
0.0898068 0.114886 -0.112842 0.0899713 0.112386 -0.0954105 0.0842357 0.109633 -0.0815988 
0.0778931 0.10684 -0.0687932 0.0694536 0.103906 -0.0594633 -0.0529574 0.123038 -0.138991 
-0.034673 0.128741 -0.159422 -0.00900674 0.132188 -0.168759 0.0165282 0.135425 -0.177071 
0.0400505 0.135441 -0.169675 0.0624704 0.135196 -0.161282 0.07519 0.132649 -0.144111 
0.0862628 0.129954 -0.12692 0.0874542 0.126364 -0.109609 0.0873504 0.122736 -0.0930433 
0.0814895 0.118937 -0.0797933 0.0750296 0.115138 -0.0674911 0.0665004 0.111341 -0.0584626 
-0.0486071 0.13649 -0.132663 -0.0308315 0.143396 -0.151934 -0.00629837 0.147409 -0.160791 
0.0180992 0.151156 -0.168698 0.0404182 0.150837 -0.162026 0.0616812 0.150192 -0.154408 
0.0736528 0.14667 -0.138472 0.084041 0.142972 -0.122482 0.0849288 0.13822 -0.106161 
0.0845562 0.133447 -0.0905145 0.0785816 0.128579 -0.0778634 0.0720168 0.123752 -0.066098 
0.0634127 0.119066 -0.0573924 -0.0402293 0.157863 -0.11813 -0.0237379 0.166462 -0.13474 
-0.00181417 0.171396 -0.142487 0.0199707 0.175998 -0.149441 0.039626 0.175527 -0.144255 
0.0583422 0.174638 -0.138248 0.0687949 0.170063 -0.125027 0.0778278 0.165246 -0.111693 
0.0783407 0.158972 -0.0976818 0.0776912 0.152659 -0.0841903 0.071875 0.146175 -0.0730082 
0.065494 0.139759 -0.0625677 0.0571616 0.133578 -0.0546889 -0.0316898 0.178496 -0.103528 
-0.0165036 0.188709 -0.117492 0.00278444 0.19455 -0.124136 0.0219296 0.200001 -0.130145 
0.0388845 0.199458 -0.126425 0.0550161 0.198408 -0.12201 0.0639038 0.192906 -0.111484 
0.0715359 0.187092 -0.100791 0.071634 0.179404 -0.0890912 0.0706712 0.171653 -0.0777589 
0.0649924 0.163621 -0.0680592 0.0587786 0.155675 -0.0589569 0.0507162 0.148031 -0.0519183 
-0.0213318 0.190807 -0.08815 -0.00768625 0.201728 -0.0996303 0.00867017 0.208344 -0.105269 
0.0248726 0.214572 -0.110411 0.0387136 0.214847 -0.107933 0.0518363 0.214582 -0.104888 
0.0586379 0.209557 -0.0968448 0.0643585 0.204125 -0.0886131 0.0635928 0.196252 -0.0792485 
0.0619067 0.188204 -0.070122 0.0561303 0.179379 -0.062054 0.0498967 0.17057 -0.0544397 
0.0420841 0.161815 -0.0483926 -0.0108597 0.202317 -0.0731938 0.00127576 0.213924 -0.0822878 
0.0147537 0.221357 -0.0869617 0.0280643 0.228407 -0.09127 0.0388102 0.229601 -0.0899726 
0.0489353 0.230222 -0.0882294 0.0535974 0.225795 -0.0825625 0.057347 0.220863 -0.0766894 
0.0556218 0.212896 -0.0695791 0.0531196 0.204633 -0.0625849 0.0471635 0.195058 -0.0561068 
0.0408378 0.185419 -0.0499441 0.0332353 0.175559 -0.0448715 0.000429715 0.208097 -0.0612602 
0.0112749 0.220227 -0.0686662 0.0222547 0.228773 -0.072665 0.0330389 0.236969 -0.0763842 
0.0408239 0.239804 -0.0758163 0.0480329 0.242047 -0.0748925 0.0501718 0.239081 -0.0708375 
0.0515239 0.235481 -0.0665854 0.0481545 0.228078 -0.0611516 0.0441691 0.220194 -0.055763 
0.0374461 0.21017 -0.0505752 0.0305092 0.199943 -0.0456043 0.0228333 0.189016 -0.0413828 
0.011948 0.213308 -0.0500017 0.0216045 0.226036 -0.0558313 0.0301999 0.235831 -0.0592002 
0.0385663 0.24531 -0.0623692 0.0434221 0.249941 -0.0624728 0.0477326 0.253958 -0.0623045 
0.0472441 0.252567 -0.0597438 0.0460829 0.250401 -0.0569961 0.0408848 0.24358 -0.053126 
0.0352369 0.236075 -0.0492362 0.0275901 0.22553 -0.045259 0.0199047 0.21464 -0.0414071 
0.0120863 0.202555 -0.0379884 0.0246387 0.215601 -0.0422037 0.0336272 0.229318 -0.0470284 
0.0404211 0.241053 -0.0499989 0.0469269 0.252512 -0.0528168 0.0490155 0.25974 -0.0532951 
0.0505185 0.26631 -0.0535544 0.046868 0.267081 -0.0518864 0.0426002 0.266864 -0.0500447 
0.0346279 0.260713 -0.0471606 0.026398 0.253593 -0.0442228 0.0170231 0.242169 -0.0410466 
0.00788621 0.230229 -0.0379406 -0.000428567 0.21651 -0.0350773 0.0378782 0.217403 -0.0350967 
0.0464068 0.232238 -0.0390116 0.0515892 0.246149 -0.0416297 0.0564132 0.259829 -0.0441382 
0.0557404 0.269961 -0.0449655 0.0544144 0.279381 -0.0456208 0.0473392 0.282528 -0.044763 
0.0396837 0.284433 -0.0437415 0.0285469 0.278886 -0.0417375 0.017366 0.272047 -0.039647 
0.00598894 0.259464 -0.0371722 -0.00482515 0.246201 -0.0347178 -0.0136945 0.230589 -0.0323339 
0.0532577 0.217291 -0.0306847 0.0621387 0.233745 -0.0340602 0.0664507 0.250751 -0.036506 
0.0702898 0.267588 -0.0388679 0.0668785 0.281826 -0.0399433 0.0626393 0.295259 -0.0408714 
0.0511147 0.301614 -0.0405023 0.0389759 0.306318 -0.0399663 0.0231518 0.301116 -0.0384295 
0.00758047 0.294146 -0.0367778 -0.00686748 0.279321 -0.0346157 -0.0202386 0.263667 -0.0324451 
-0.02989 0.24515 -0.0302452 0.0695982 0.216243 -0.0268747 0.079222 0.234351 -0.0297897 
0.0830518 0.254668 -0.0321233 0.0862719 0.274894 -0.034397 0.0801425 0.293719 -0.0357506 
0.0729468 0.311645 -0.0369759 0.0563673 0.321651 -0.0370728 0.0391024 0.329512 -0.0369896 
0.0177249 0.324501 -0.0358252 -0.00302967 0.317172 -0.0345104 -0.0210155 0.299546 -0.0325265 
-0.0372897 0.280985 -0.0305093 -0.0476508 0.259192 -0.0283768 -0.078331 0.116507 -0.164105 
-0.055899 0.122365 -0.190587 -0.0203512 0.125827 -0.202648 0.0150355 0.129046 -0.213248 
0.0479524 0.12855 -0.201461 0.079157 0.127799 -0.188451 0.0952939 0.124802 -0.164681 
0.109106 0.121729 -0.141208 0.10897 0.118195 -0.119513 0.107304 0.11469 -0.0989894 
0.0988431 0.111312 -0.0836687 0.0898829 0.107964 -0.0695783 0.0791988 0.104715 -0.0597377 
-0.0730454 0.132085 -0.156993 -0.0512474 0.139592 -0.181843 -0.0173341 0.1438 -0.193168 
0.0164173 0.147683 -0.203144 0.047686 0.146594 -0.192451 0.0773314 0.145163 -0.180598 
0.0926932 0.140726 -0.158535 0.105827 0.136197 -0.136697 0.105593 0.131111 -0.116216 
0.103862 0.1261 -0.0968025 0.0954734 0.121419 -0.0821351 0.0865769 0.116834 -0.0686215 
0.0759252 0.112578 -0.0590938 -0.0675251 0.148006 -0.149464 -0.0464046 0.157179 -0.172598 
-0.0142181 0.162146 -0.183151 0.0178059 0.166706 -0.192473 0.0473371 0.165035 -0.182922 
0.0753393 0.162935 -0.172276 0.0898867 0.157058 -0.152003 0.10231 0.15107 -0.131884 
0.101984 0.144418 -0.112685 0.100195 0.137884 -0.0944471 0.0919018 0.131874 -0.0804756 
0.0830911 0.126027 -0.0675771 0.072494 0.120738 -0.058385 -0.05649 0.171979 -0.132135 
-0.0370706 0.183226 -0.15159 -0.00877908 0.189256 -0.160538 0.0193536 0.194794 -0.16849 
0.0450502 0.192803 -0.161173 0.0694322 0.190269 -0.152918 0.0822457 0.182959 -0.136418 
0.093188 0.175468 -0.11995 0.0929025 0.166895 -0.103674 0.0912597 0.158443 -0.0881326 
0.0835841 0.150524 -0.0758578 0.0753818 0.142818 -0.0644712 0.06536 0.135852 -0.0561526 
-0.0453117 0.194922 -0.114813 -0.0276177 0.208104 -0.130637 -0.00323385 0.215159 -0.13801 
0.0209941 0.221648 -0.144617 0.0428308 0.219448 -0.139493 0.0635645 0.2166 -0.133588 
0.0745917 0.208041 -0.120814 0.0840014 0.199229 -0.107956 0.0837057 0.188895 -0.0945926 
0.0821635 0.178671 -0.0817422 0.0750812 0.168939 -0.0711736 0.067468 0.159462 -0.0613086 
0.0580203 0.150866 -0.0538746 -0.0325224 0.206284 -0.0975592 -0.0168275 0.219825 -0.110298 
0.00350638 0.227485 -0.116433 0.0236785 0.234606 -0.121983 0.0413705 0.233459 -0.11859 
0.0581401 0.231642 -0.114566 0.0667921 0.223916 -0.104998 0.0740838 0.215822 -0.0952878 
0.073214 0.205512 -0.0847278 0.0712612 0.195177 -0.0744989 0.0644951 0.184724 -0.0657418 
0.0572532 0.174441 -0.0575081 0.0483676 0.164745 -0.051083 -0.0197229 0.216679 -0.0809011 
-0.00598377 0.230541 -0.0907084 0.0104046 0.238841 -0.0956755 0.026623 0.246633 -0.100231 
0.0402364 0.246641 -0.0984803 0.0530963 0.245958 -0.0962433 0.0593257 0.239201 -0.0897299 
0.0644424 0.231957 -0.0830232 0.0628834 0.221788 -0.0751566 0.0604075 0.211446 -0.0674486 
0.0538568 0.200337 -0.0604452 0.0468968 0.189304 -0.053792 0.0385231 0.178531 -0.0483486 
-0.00684907 0.22014 -0.0685112 0.00524352 0.234042 -0.0764816 0.0184351 0.243237 -0.0807942 
0.0314318 0.251984 -0.0847975 0.0414397 0.253874 -0.0840602 0.0507801 0.25508 -0.0829349 
0.0542472 0.250255 -0.0783956 0.05678 0.244806 -0.0736528 0.0537066 0.235608 -0.0676895 
0.0499015 0.226024 -0.0617812 0.0428442 0.214727 -0.0561178 0.0355255 0.203342 -0.0506804 
0.0273036 0.191652 -0.0460238 0.00613269 0.223046 -0.0569645 0.016699 0.237082 -0.0632546 
0.0268582 0.247309 -0.0669888 0.0367924 0.257148 -0.0705077 0.0432762 0.261053 -0.0707253 
0.0491615 0.264272 -0.0706447 0.0497808 0.261465 -0.0679405 0.0496286 0.257886 -0.0650229 
0.0448481 0.249668 -0.0608244 0.0395244 0.240839 -0.0565837 0.0317868 0.229292 -0.0521557 
0.0239556 0.21749 -0.0478372 0.0158011 0.204806 -0.0438975 0.0196673 0.2231 -0.0497391 
0.0293235 0.237752 -0.0551513 0.0372929 0.249719 -0.0586982 0.0449812 0.261357 -0.0620812 
0.0483584 0.267946 -0.0629522 0.0511188 0.273826 -0.063573 0.0484512 0.273476 -0.0619921 
0.0450968 0.272149 -0.060188 0.0376209 0.264956 -0.0570449 0.0298084 0.256861 -0.0537943 
0.0204994 0.244753 -0.0500659 0.0113677 0.232203 -0.0463704 0.00284859 0.218124 -0.0427885 
0.0336374 0.222765 -0.0433513 0.042604 0.238179 -0.0480218 0.0486052 0.252117 -0.0514737 
0.0542584 0.265786 -0.0548084 0.0545733 0.275324 -0.0563452 0.0542249 0.28412 -0.0576715 